<?xml version="1.0" encoding="ISO-8859-1"?>
<modeling>
 <generator>
  <i name="program" type="string">vasp </i>
  <i name="version" type="string">6.3.0  </i>
  <i name="subversion" type="string">20Jan22 (build Mar 29 2022 17:04:21) complex                          parallel </i>
  <i name="platform" type="string">LinuxIFC </i>
  <i name="date" type="string">2022 07 13 </i>
  <i name="time" type="string">19:12:54 </i>
 </generator>
 <incar>
  <i type="string" name="SYSTEM">NbSe2 mp-571133</i>
  <i type="string" name="ALGO">Normal</i>
  <i name="EDIFF">      0.00000100</i>
  <i name="ENCUT">    300.00000000</i>
  <i type="logical" name="LOPTICS"> T  </i>
  <i type="logical" name="LWANNIER90"> T  </i>
 </incar>
 <primitive_cell>
  <structure name="primitive_cell" >
   <crystal>
    <varray name="basis" >
     <v>       1.74658700      -3.02517700       0.00000000 </v>
     <v>       1.74658700       3.02517700       0.00000000 </v>
     <v>       0.00000000       0.00000000      28.21533400 </v>
    </varray>
    <i name="volume">    298.16468548 </i>
    <varray name="rec_basis" >
     <v>       0.28627260      -0.16527959       0.00000000 </v>
     <v>       0.28627260       0.16527959       0.00000000 </v>
     <v>       0.00000000       0.00000000       0.03544172 </v>
    </varray>
   </crystal>
   <varray name="positions" >
    <v>       0.00000000       0.00000000       0.00000000 </v>
    <v>       0.00000000       0.00000000       0.25029100 </v>
    <v>       0.33333300       0.66666700       0.50000000 </v>
    <v>       0.00000000       0.00000000       0.74970900 </v>
    <v>       0.33333300       0.66666700       0.94030500 </v>
    <v>       0.66666700       0.33333300       0.68989900 </v>
    <v>       0.66666700       0.33333300       0.31010100 </v>
    <v>       0.33333300       0.66666700       0.05969500 </v>
    <v>       0.66666700       0.33333300       0.80940600 </v>
    <v>       0.66666700       0.33333300       0.19059400 </v>
    <v>       0.00000000       0.00000000       0.44025400 </v>
    <v>       0.00000000       0.00000000       0.55974600 </v>
   </varray>
  </structure>
  <varray name="primitive_index" >
   <v type="int" >        1 </v>
   <v type="int" >        2 </v>
   <v type="int" >        3 </v>
   <v type="int" >        4 </v>
   <v type="int" >        5 </v>
   <v type="int" >        6 </v>
   <v type="int" >        7 </v>
   <v type="int" >        8 </v>
   <v type="int" >        9 </v>
   <v type="int" >       10 </v>
   <v type="int" >       11 </v>
   <v type="int" >       12 </v>
  </varray>
 </primitive_cell>
 <kpoints>
  <generation param="Gamma">
   <v type="int" name="divisions">       5        5        1 </v>
   <v name="usershift">      0.00000000       0.00000000       0.00000000 </v>
   <v name="genvec1">      0.20000000       0.00000000       0.00000000 </v>
   <v name="genvec2">      0.00000000       0.20000000       0.00000000 </v>
   <v name="genvec3">      0.00000000       0.00000000       1.00000000 </v>
   <v name="shift">      0.00000000       0.00000000       0.00000000 </v>
  </generation>
  <varray name="kpointlist" >
   <v>       0.00000000       0.00000000       0.00000000 </v>
   <v>       0.20000000      -0.00000000       0.00000000 </v>
   <v>       0.40000000       0.00000000       0.00000000 </v>
   <v>       0.20000000       0.20000000       0.00000000 </v>
   <v>       0.40000000       0.20000000       0.00000000 </v>
  </varray>
  <varray name="weights" >
   <v>       0.04000000 </v>
   <v>       0.24000000 </v>
   <v>       0.24000000 </v>
   <v>       0.24000000 </v>
   <v>       0.24000000 </v>
  </varray>
 </kpoints>
 <parameters>
  <separator name="general" >
   <i type="string" name="SYSTEM">NbSe2 mp-571133</i>
   <i type="logical" name="LCOMPAT"> F  </i>
  </separator>
  <separator name="electronic" >
   <i type="string" name="PREC">normal</i>
   <i name="ENMAX">    300.00000000</i>
   <i name="ENAUG">    455.65900000</i>
   <i name="EDIFF">      0.00000100</i>
   <i type="int" name="IALGO">    38</i>
   <i type="int" name="IWAVPR">    10</i>
   <i type="int" name="NBANDS">    64</i>
   <i type="int" name="NBANDSLOW">    -1</i>
   <i type="int" name="NBANDSHIGH">    -1</i>
   <i name="NELECT">    100.00000000</i>
   <i type="int" name="TURBO">     0</i>
   <i type="int" name="IRESTART">     0</i>
   <i type="int" name="NREBOOT">     0</i>
   <i type="int" name="NMIN">     0</i>
   <i name="EREF">      0.00000000</i>
   <separator name="electronic smearing" >
    <i type="int" name="ISMEAR">     1</i>
    <i name="SIGMA">      0.20000000</i>
    <i name="KSPACING">      0.50000000</i>
    <i type="logical" name="KGAMMA"> T  </i>
    <i type="logical" name="KBLOWUP"> T  </i>
   </separator>
   <separator name="electronic projectors" >
    <i type="logical" name="LREAL"> F  </i>
    <v name="ROPT">      0.00000000      0.00000000</v>
    <i type="int" name="LMAXPAW">  -100</i>
    <i type="int" name="LMAXMIX">     2</i>
    <i type="logical" name="NLSPLINE"> F  </i>
   </separator>
   <separator name="electronic startup" >
    <i type="int" name="ISTART">     1</i>
    <i type="int" name="ICHARG">     0</i>
    <i type="int" name="INIWAV">     1</i>
   </separator>
   <separator name="electronic spin" >
    <i type="int" name="ISPIN">     1</i>
    <i type="logical" name="LNONCOLLINEAR"> F  </i>
    <v name="MAGMOM">      1.00000000      1.00000000      1.00000000      1.00000000      1.00000000      1.00000000      1.00000000      1.00000000      1.00000000      1.00000000      1.00000000      1.00000000</v>
    <i name="NUPDOWN">     -1.00000000</i>
    <i type="logical" name="LSORBIT"> F  </i>
    <v name="SAXIS">      0.00000000      0.00000000      1.00000000</v>
    <i type="logical" name="LSPIRAL"> F  </i>
    <v name="QSPIRAL">      0.00000000      0.00000000      0.00000000</v>
    <i type="logical" name="LZEROZ"> F  </i>
   </separator>
   <separator name="electronic exchange-correlation" >
    <i type="logical" name="LASPH"> F  </i>
    <i type="logical" name="LMETAGGA"> F  </i>
   </separator>
   <separator name="electronic convergence" >
    <i type="int" name="NELM">    60</i>
    <i type="int" name="NELMDL">     0</i>
    <i type="int" name="NELMIN">     2</i>
    <i name="ENINI">    300.00000000</i>
    <separator name="electronic convergence detail" >
     <i type="logical" name="LDIAG"> T  </i>
     <i type="logical" name="LSUBROT"> F  </i>
     <i name="WEIMIN">      0.00000000</i>
     <i name="EBREAK">      0.00000000</i>
     <i name="DEPER">      0.30000000</i>
     <i type="int" name="NRMM">     4</i>
     <i name="TIME">      0.40000000</i>
    </separator>
   </separator>
   <separator name="electronic mixer" >
    <i name="AMIX">      0.40000000</i>
    <i name="BMIX">      1.00000000</i>
    <i name="AMIN">      0.10000000</i>
    <i name="AMIX_MAG">      1.60000000</i>
    <i name="BMIX_MAG">      1.00000000</i>
    <separator name="electronic mixer details" >
     <i type="int" name="IMIX">     4</i>
     <i type="logical" name="MIXFIRST"> F  </i>
     <i type="int" name="MAXMIX">   -45</i>
     <i name="WC">    100.00000000</i>
     <i type="int" name="INIMIX">     1</i>
     <i type="int" name="MIXPRE">     1</i>
     <i type="int" name="MREMOVE">     5</i>
    </separator>
   </separator>
   <separator name="electronic dipolcorrection" >
    <i type="logical" name="LDIPOL"> F  </i>
    <i type="logical" name="LMONO"> F  </i>
    <i type="int" name="IDIPOL">     0</i>
    <i name="EPSILON">      1.00000000</i>
    <v name="DIPOL">   -100.00000000   -100.00000000   -100.00000000</v>
    <i name="EFIELD">      0.00000000</i>
   </separator>
  </separator>
  <separator name="grids" >
   <i type="int" name="NGX">    16</i>
   <i type="int" name="NGY">    16</i>
   <i type="int" name="NGZ">   120</i>
   <i type="int" name="NGXF">    32</i>
   <i type="int" name="NGYF">    32</i>
   <i type="int" name="NGZF">   240</i>
   <i type="logical" name="ADDGRID"> F  </i>
  </separator>
  <separator name="ionic" >
   <i type="int" name="NSW">     0</i>
   <i type="int" name="IBRION">    -1</i>
   <i type="int" name="MDALGO">     0</i>
   <i type="int" name="ISIF">     2</i>
   <i name="PSTRESS">      0.00000000</i>
   <i name="EDIFFG">      0.00001000</i>
   <i type="int" name="NFREE">     0</i>
   <i name="POTIM">      0.50000000</i>
   <i name="SMASS">     -3.00000000</i>
   <i name="SCALEE">      1.00000000</i>
  </separator>
  <separator name="ionic md" >
   <i name="TEBEG">      0.00010000</i>
   <i name="TEEND">      0.00010000</i>
   <i type="int" name="NBLOCK">     1</i>
   <i type="int" name="KBLOCK">     1</i>
   <i type="int" name="NPACO">   256</i>
   <i name="APACO">     10.00000000</i>
  </separator>
  <separator name="symmetry" >
   <i type="int" name="ISYM">     2</i>
   <i name="SYMPREC">      0.00001000</i>
  </separator>
  <separator name="dos" >
   <i type="int" name="LORBIT">     0</i>
   <v name="RWIGS">     -1.00000000     -1.00000000</v>
   <i type="int" name="NEDOS">   301</i>
   <i name="EMIN">     10.00000000</i>
   <i name="EMAX">    -10.00000000</i>
   <i name="EFERMI">      0.00000000</i>
  </separator>
  <separator name="writing" >
   <i type="int" name="NWRITE">     2</i>
   <i type="logical" name="LWAVE"> T  </i>
   <i type="logical" name="LDOWNSAMPLE"> F  </i>
   <i type="logical" name="LCHARG"> T  </i>
   <i type="logical" name="LPARD"> F  </i>
   <i type="logical" name="LVTOT"> F  </i>
   <i type="logical" name="LVHAR"> F  </i>
   <i type="logical" name="LELF"> F  </i>
   <i type="logical" name="LOPTICS"> T  </i>
   <v name="STM">      0.00000000      0.00000000      0.00000000      0.00000000      0.00000000      0.00000000      0.00000000</v>
  </separator>
  <separator name="performance" >
   <i type="int" name="NPAR">     8</i>
   <i type="int" name="NSIM">     4</i>
   <i type="int" name="NBLK">    -1</i>
   <i type="logical" name="LPLANE"> T  </i>
   <i type="logical" name="LSCALAPACK"> T  </i>
   <i type="logical" name="LSCAAWARE"> F  </i>
   <i type="logical" name="LSCALU"> F  </i>
   <i type="logical" name="LASYNC"> F  </i>
   <i type="logical" name="LORBITALREAL"> F  </i>
  </separator>
  <separator name="miscellaneous" >
   <i type="int" name="IDIOT">     3</i>
   <i type="int" name="PHON_NSTRUCT">    -1</i>
   <i type="logical" name="LMUSIC"> F  </i>
   <v name="POMASS">     92.91000000     78.96000000</v>
   <v name="DARWINR">      0.00000000      0.00000000</v>
   <v name="DARWINV">      1.00000000      1.00000000</v>
   <i type="logical" name="LCORR"> T  </i>
  </separator>
  <i type="logical" name="GGA_COMPAT"> T  </i>
  <i type="logical" name="LBERRY"> F  </i>
  <i type="int" name="ICORELEVEL">     0</i>
  <i type="logical" name="LDAU"> F  </i>
  <i type="int" name="I_CONSTRAINED_M">     0</i>
  <separator name="electronic exchange-correlation" >
   <i type="string" name="GGA">--</i>
   <i type="int" name="VOSKOWN">     0</i>
   <i type="logical" name="LHFCALC"> F  </i>
   <i type="string" name="PRECFOCK"></i>
   <i type="logical" name="LSYMGRAD"> F  </i>
   <i type="logical" name="LHFONE"> F  </i>
   <i type="logical" name="LRHFCALC"> F  </i>
   <i type="logical" name="LTHOMAS"> F  </i>
   <i type="logical" name="LMODELHF"> F  </i>
   <i type="logical" name="LFOCKACE"> F  </i>
   <i name="ENCUT4O">     -1.00000000</i>
   <i type="int" name="EXXOEP">     0</i>
   <i type="int" name="FOURORBIT">     0</i>
   <i name="AEXX">      0.00000000</i>
   <i name="HFALPHA">      0.00000000</i>
   <i name="MCALPHA">      0.00000000</i>
   <i name="ALDAX">      1.00000000</i>
   <i name="AGGAX">      1.00000000</i>
   <i name="ALDAC">      1.00000000</i>
   <i name="AGGAC">      1.00000000</i>
   <i type="int" name="NKREDX">     1</i>
   <i type="int" name="NKREDY">     1</i>
   <i type="int" name="NKREDZ">     1</i>
   <i type="logical" name="SHIFTRED"> F  </i>
   <i type="logical" name="ODDONLY"> F  </i>
   <i type="logical" name="EVENONLY"> F  </i>
   <i type="int" name="LMAXFOCK">     0</i>
   <i type="int" name="NMAXFOCKAE">     0</i>
   <i type="logical" name="LFOCKAEDFT"> F  </i>
   <i name="HFSCREEN">      0.00000000</i>
   <i name="HFSCREENC">      0.00000000</i>
   <i type="int" name="NBANDSGWLOW">     0</i>
  </separator>
  <separator name="vdW DFT" >
   <i type="logical" name="LUSE_VDW"> F  </i>
   <i name="Zab_VDW">     -0.84910000</i>
   <i name="PARAM1">      0.12340000</i>
   <i name="PARAM2">      1.00000000</i>
   <i name="PARAM3">      0.00000000</i>
  </separator>
  <separator name="model GW" >
   <i type="int" name="MODEL_GW">     0</i>
   <i name="MODEL_EPS0">     14.90823427</i>
   <i name="MODEL_ALPHA">      1.00000000</i>
  </separator>
  <separator name="linear response parameters" >
   <i type="logical" name="LEPSILON"> F  </i>
   <i type="logical" name="LRPA"> F  </i>
   <i type="logical" name="LNABLA"> F  </i>
   <i type="logical" name="LVEL"> F  </i>
   <i name="CSHIFT">      0.10000000</i>
   <i name="OMEGAMAX">     -1.00000000</i>
   <i name="DEG_THRESHOLD">      0.00200000</i>
   <i name="RTIME">     -0.10000000</i>
   <i name="WPLASMAI">      0.00000000</i>
   <v name="DFIELD">      0.00000000      0.00000000      0.00000000</v>
   <v name="WPLASMA">      0.00000000      0.00000000      0.00000000      0.00000000      0.00000000      0.00000000      0.00000000      0.00000000      0.00000000</v>
  </separator>
  <separator name="orbital magnetization" >
   <i type="logical" name="NUCIND"> F  </i>
   <v name="MAGPOS">      0.00000000      0.00000000      0.00000000</v>
   <i type="logical" name="LNICSALL"> T  </i>
   <i type="logical" name="ORBITALMAG"> F  </i>
   <i type="logical" name="LMAGBLOCH"> F  </i>
   <i type="logical" name="LCHIMAG"> F  </i>
   <i type="logical" name="LGAUGE"> T  </i>
   <i type="int" name="MAGATOM">     0</i>
   <v name="MAGDIPOL">      0.00000000      0.00000000      0.00000000</v>
   <v name="AVECCONST">      0.00000000      0.00000000      0.00000000</v>
  </separator>
  <separator name="response functions" >
   <i type="logical" name="LFINITE_TEMPERATURE"> F  </i>
   <i type="logical" name="LADDER"> F  </i>
   <i type="logical" name="LRPAFORCE"> F  </i>
   <i type="logical" name="LFXC"> F  </i>
   <i type="logical" name="LHARTREE"> T  </i>
   <i type="int" name="IBSE">     0</i>
   <v type="int" name="KPOINT">    -1     0     0     0</v>
   <i type="logical" name="LTCTC"> F  </i>
   <i type="logical" name="LTCTE"> F  </i>
   <i type="logical" name="LTETE"> F  </i>
   <i type="logical" name="LTRIPLET"> F  </i>
   <i type="logical" name="LFXCEPS"> F  </i>
   <i type="logical" name="LFXHEG"> F  </i>
   <i type="int" name="NATURALO">     2</i>
   <i type="logical" name="LHOLEGF"> F  </i>
   <i type="logical" name="L2ORDER"> F  </i>
   <i type="logical" name="LDMP1"> F  </i>
   <i type="logical" name="LMP2LT"> F  </i>
   <i type="logical" name="LSMP2LT"> F  </i>
   <i type="logical" name="LGWLF"> F  </i>
   <i name="ENCUTGW">     -2.00000000</i>
   <i name="ENCUTGWSOFT">     -2.00000000</i>
   <i name="ENCUTLF">     -1.00000000</i>
   <i type="logical" name="LESF_SPLINES"> F  </i>
   <i type="int" name="LMAXMP2">    -1</i>
   <i name="SCISSOR">      0.00000000</i>
   <i type="int" name="NOMEGA">     0</i>
   <i type="int" name="NOMEGAR">     0</i>
   <i type="int" name="NBANDSGW">    -1</i>
   <i type="int" name="NBANDSO">    -1</i>
   <i type="int" name="NBANDSV">    -1</i>
   <i type="int" name="NELMGW">     1</i>
   <i type="int" name="NELMHF">     1</i>
   <i type="int" name="DIM">     3</i>
   <i type="int" name="IESPILON">     4</i>
   <i type="int" name="ANTIRES">     0</i>
   <i name="OMEGAMAX">    -30.00000000</i>
   <i name="OMEGAMIN">    -30.00000000</i>
   <i name="OMEGATL">   -200.00000000</i>
   <i type="int" name="OMEGAGRID">     0</i>
   <i name="CSHIFT">     -0.10000000</i>
   <i type="logical" name="LSELFENERGY"> F  </i>
   <i type="logical" name="LSPECTRAL"> F  </i>
   <i type="logical" name="LSPECTRALGW"> F  </i>
   <i type="logical" name="LSINGLES"> F  </i>
   <i type="logical" name="LFERMIGW"> F  </i>
   <i type="logical" name="ODDONLYGW"> F  </i>
   <i type="logical" name="EVENONLYGW"> F  </i>
   <i type="int" name="NKREDLFX">     1</i>
   <i type="int" name="NKREDLFY">     1</i>
   <i type="int" name="NKREDLFZ">     1</i>
   <i type="int" name="MAXMEM">  2800</i>
   <i type="int" name="TELESCOPE">     0</i>
   <i type="int" name="NTAUPAR">    -1</i>
   <i type="int" name="NOMEGAPAR">    -1</i>
   <i name="DAMP_NEWTON">      0.80000001</i>
   <i name="LAMBDA">      1.00000000</i>
  </separator>
  <separator name="External order field" >
   <i name="OFIELD_KAPPA">      0.00000000</i>
   <v name="OFIELD_K">      0.00000000      0.00000000      0.00000000</v>
   <i name="OFIELD_Q6_NEAR">      0.00000000</i>
   <i name="OFIELD_Q6_FAR">      0.00000000</i>
   <i name="OFIELD_A">      0.00000000</i>
  </separator>
  <separator name="optional k-points parameters" >
   <i type="int" name="KPOINTS_OPT_MODE">     1</i>
   <i type="logical" name="LKPOINTS_OPT"> F  </i>
  </separator>
 </parameters>
 <atominfo>
  <atoms>      12 </atoms>
  <types>       2 </types>
  <array name="atoms" >
   <dimension dim="1">ion</dimension>
   <field type="string">element</field>
   <field type="int">atomtype</field>
   <set>
    <rc><c>Nb</c><c>   1</c></rc>
    <rc><c>Nb</c><c>   1</c></rc>
    <rc><c>Nb</c><c>   1</c></rc>
    <rc><c>Nb</c><c>   1</c></rc>
    <rc><c>Se</c><c>   2</c></rc>
    <rc><c>Se</c><c>   2</c></rc>
    <rc><c>Se</c><c>   2</c></rc>
    <rc><c>Se</c><c>   2</c></rc>
    <rc><c>Se</c><c>   2</c></rc>
    <rc><c>Se</c><c>   2</c></rc>
    <rc><c>Se</c><c>   2</c></rc>
    <rc><c>Se</c><c>   2</c></rc>
   </set>
  </array>
  <array name="atomtypes" >
   <dimension dim="1">type</dimension>
   <field type="int">atomspertype</field>
   <field type="string">element</field>
   <field>mass</field>
   <field>valence</field>
   <field type="string">pseudopotential</field>
   <set>
    <rc><c>   4</c><c>Nb</c><c>     92.91000000</c><c>     13.00000000</c><c>  PAW_PBE Nb_sv 25May2007               </c></rc>
    <rc><c>   8</c><c>Se</c><c>     78.96000000</c><c>      6.00000000</c><c>  PAW_PBE Se 06Sep2000                  </c></rc>
   </set>
  </array>
 </atominfo>
 <structure name="initialpos" >
  <crystal>
   <varray name="basis" >
    <v>       1.74658700      -3.02517700       0.00000000 </v>
    <v>       1.74658700       3.02517700       0.00000000 </v>
    <v>       0.00000000       0.00000000      28.21533400 </v>
   </varray>
   <i name="volume">    298.16468548 </i>
   <varray name="rec_basis" >
    <v>       0.28627260      -0.16527959       0.00000000 </v>
    <v>       0.28627260       0.16527959       0.00000000 </v>
    <v>       0.00000000       0.00000000       0.03544172 </v>
   </varray>
  </crystal>
  <varray name="positions" >
   <v>       0.00000000       0.00000000       0.00000000 </v>
   <v>       0.00000000       0.00000000       0.25029100 </v>
   <v>       0.33333300       0.66666700       0.50000000 </v>
   <v>       0.00000000       0.00000000       0.74970900 </v>
   <v>       0.33333300       0.66666700       0.94030500 </v>
   <v>       0.66666700       0.33333300       0.68989900 </v>
   <v>       0.66666700       0.33333300       0.31010100 </v>
   <v>       0.33333300       0.66666700       0.05969500 </v>
   <v>       0.66666700       0.33333300       0.80940600 </v>
   <v>       0.66666700       0.33333300       0.19059400 </v>
   <v>       0.00000000       0.00000000       0.44025400 </v>
   <v>       0.00000000       0.00000000       0.55974600 </v>
  </varray>
 </structure>
 <calculation>
  <scstep>
   <time name="dav">    0.23    0.24</time>
   <time name="total">    0.26    0.27</time>
   <energy>
    <i name="alphaZ">    309.75794418 </i>
    <i name="ewald">  -5026.44905138 </i>
    <i name="hartreedc">  -2954.39951325 </i>
    <i name="XCdc">    219.66329128 </i>
    <i name="pawpsdc">   8507.90007110 </i>
    <i name="pawaedc">  -8322.82183490 </i>
    <i name="eentropy">      0.03863252 </i>
    <i name="bandstr">  -1090.49063005 </i>
    <i name="atom">   8277.49976063 </i>
    <i name="e_fr_energy">    -79.30132987 </i>
    <i name="e_wo_entrp">    -79.33996239 </i>
    <i name="e_0_energy">    -79.31420738 </i>
   </energy>
  </scstep>
  <scstep>
   <time name="dav">    0.35    0.35</time>
   <time name="total">    0.38    0.38</time>
   <energy>
    <i name="e_fr_energy">    -79.31842288 </i>
    <i name="e_wo_entrp">    -79.34108692 </i>
    <i name="e_0_energy">    -79.32597756 </i>
   </energy>
  </scstep>
  <scstep>
   <time name="dav">    0.34    0.34</time>
   <time name="total">    0.37    0.37</time>
   <energy>
    <i name="e_fr_energy">    -79.30934364 </i>
    <i name="e_wo_entrp">    -79.33699621 </i>
    <i name="e_0_energy">    -79.31856117 </i>
   </energy>
  </scstep>
  <scstep>
   <time name="dav">    0.33    0.33</time>
   <time name="total">    0.36    0.36</time>
   <energy>
    <i name="e_fr_energy">    -79.30612741 </i>
    <i name="e_wo_entrp">    -79.34167847 </i>
    <i name="e_0_energy">    -79.31797776 </i>
   </energy>
  </scstep>
  <scstep>
   <time name="dav">    0.30    0.30</time>
   <time name="total">    0.33    0.33</time>
   <energy>
    <i name="e_fr_energy">    -79.30271262 </i>
    <i name="e_wo_entrp">    -79.34210274 </i>
    <i name="e_0_energy">    -79.31584266 </i>
   </energy>
  </scstep>
  <scstep>
   <time name="dav">    0.30    0.30</time>
   <time name="total">    0.33    0.33</time>
   <energy>
    <i name="e_fr_energy">    -79.30248198 </i>
    <i name="e_wo_entrp">    -79.34180639 </i>
    <i name="e_0_energy">    -79.31559012 </i>
   </energy>
  </scstep>
  <scstep>
   <time name="dav">    0.30    0.30</time>
   <time name="total">    0.33    0.33</time>
   <energy>
    <i name="e_fr_energy">    -79.30246532 </i>
    <i name="e_wo_entrp">    -79.34168820 </i>
    <i name="e_0_energy">    -79.31553961 </i>
   </energy>
  </scstep>
  <scstep>
   <time name="dav">    0.28    0.28</time>
   <time name="total">    0.30    0.31</time>
   <energy>
    <i name="e_fr_energy">    -79.30246829 </i>
    <i name="e_wo_entrp">    -79.34152093 </i>
    <i name="e_0_energy">    -79.31548584 </i>
   </energy>
  </scstep>
  <scstep>
   <time name="dav">    0.30    0.30</time>
   <time name="total">    0.32    0.32</time>
   <energy>
    <i name="e_fr_energy">    -79.30247324 </i>
    <i name="e_wo_entrp">    -79.34149480 </i>
    <i name="e_0_energy">    -79.31548043 </i>
   </energy>
  </scstep>
  <scstep>
   <time name="dav">    0.19    0.19</time>
   <time name="total">    0.22    0.22</time>
   <energy>
    <i name="e_fr_energy">    -79.30247425 </i>
    <i name="e_wo_entrp">    -79.34150872 </i>
    <i name="e_0_energy">    -79.31548574 </i>
   </energy>
  </scstep>
  <scstep>
   <time name="dav">    0.18    0.18</time>
   <time name="total">    0.19    0.19</time>
   <energy>
    <i name="alphaZ">    309.75794418 </i>
    <i name="ewald">  -5026.44905138 </i>
    <i name="hartreedc">  -2955.21113358 </i>
    <i name="XCdc">    219.69215110 </i>
    <i name="pawpsdc">   8407.20398105 </i>
    <i name="pawaedc">  -8221.71587872 </i>
    <i name="eentropy">      0.03904441 </i>
    <i name="bandstr">  -1090.11929216 </i>
    <i name="atom">   8277.49976063 </i>
    <i name="e_fr_energy">    -79.30247446 </i>
    <i name="e_wo_entrp">    -79.34151887 </i>
    <i name="e_0_energy">    -79.31548926 </i>
   </energy>
  </scstep>
  <structure>
   <crystal>
    <varray name="basis" >
     <v>       1.74658700      -3.02517700       0.00000000 </v>
     <v>       1.74658700       3.02517700       0.00000000 </v>
     <v>       0.00000000       0.00000000      28.21533400 </v>
    </varray>
    <i name="volume">    298.16468548 </i>
    <varray name="rec_basis" >
     <v>       0.28627260      -0.16527959       0.00000000 </v>
     <v>       0.28627260       0.16527959       0.00000000 </v>
     <v>       0.00000000       0.00000000       0.03544172 </v>
    </varray>
   </crystal>
   <varray name="positions" >
    <v>       0.00000000       0.00000000       0.00000000 </v>
    <v>       0.00000000       0.00000000       0.25029100 </v>
    <v>       0.33333300       0.66666700       0.50000000 </v>
    <v>       0.00000000       0.00000000       0.74970900 </v>
    <v>       0.33333300       0.66666700       0.94030500 </v>
    <v>       0.66666700       0.33333300       0.68989900 </v>
    <v>       0.66666700       0.33333300       0.31010100 </v>
    <v>       0.33333300       0.66666700       0.05969500 </v>
    <v>       0.66666700       0.33333300       0.80940600 </v>
    <v>       0.66666700       0.33333300       0.19059400 </v>
    <v>       0.00000000       0.00000000       0.44025400 </v>
    <v>       0.00000000       0.00000000       0.55974600 </v>
   </varray>
  </structure>
  <varray name="forces" >
   <v>       0.00000000      -0.00000000       0.00000000 </v>
   <v>       0.00000000       0.00000000       0.00390688 </v>
   <v>       0.00000000      -0.00000000       0.00000000 </v>
   <v>       0.00000000       0.00000000      -0.00390688 </v>
   <v>      -0.00000000       0.00000000       0.21627941 </v>
   <v>       0.00000000       0.00000000       0.24455578 </v>
   <v>      -0.00000000       0.00000000      -0.24455578 </v>
   <v>      -0.00000000       0.00000000      -0.21627941 </v>
   <v>      -0.00000000       0.00000000      -0.23554513 </v>
   <v>       0.00000000       0.00000000       0.23554513 </v>
   <v>       0.00000000       0.00000000       0.23644861 </v>
   <v>       0.00000000       0.00000000      -0.23644861 </v>
  </varray>
  <varray name="stress" >
   <v>     -14.22351954       0.00000000       0.00000000 </v>
   <v>       0.00000000     -14.22351556       0.00000000 </v>
   <v>       0.00000000      -0.00000000     -20.86480308 </v>
  </varray>
  <energy>
   <i name="e_fr_energy">    -79.30247446 </i>
   <i name="e_wo_entrp">    -79.34151887 </i>
   <i name="e_0_energy">    -79.31548926 </i>
  </energy>
  <time name="totalsc">    7.36    7.49</time>
  <eigenvalues>
   <array>
    <dimension dim="1">band</dimension>
    <dimension dim="2">kpoint</dimension>
    <dimension dim="3">spin</dimension>
    <field>eigene</field>
    <field>occ</field>
    <set>
     <set comment="spin 1">
      <set comment="kpoint 1">
       <r>  -50.8541    1.0000 </r>
       <r>  -50.8514    1.0000 </r>
       <r>  -50.8513    1.0000 </r>
       <r>  -50.8482    1.0000 </r>
       <r>  -26.9318    1.0000 </r>
       <r>  -26.9285    1.0000 </r>
       <r>  -26.9284    1.0000 </r>
       <r>  -26.9263    1.0000 </r>
       <r>  -26.8302    1.0000 </r>
       <r>  -26.8302    1.0000 </r>
       <r>  -26.8279    1.0000 </r>
       <r>  -26.8279    1.0000 </r>
       <r>  -26.8277    1.0000 </r>
       <r>  -26.8277    1.0000 </r>
       <r>  -26.8251    1.0000 </r>
       <r>  -26.8251    1.0000 </r>
       <r>   -9.3176    1.0000 </r>
       <r>   -9.2744    1.0000 </r>
       <r>   -9.2729    1.0000 </r>
       <r>   -9.2230    1.0000 </r>
       <r>   -8.4056    1.0000 </r>
       <r>   -8.3314    1.0000 </r>
       <r>   -8.3305    1.0000 </r>
       <r>   -8.2625    1.0000 </r>
       <r>   -0.8154    1.0000 </r>
       <r>   -0.5736    1.0000 </r>
       <r>   -0.5730    1.0000 </r>
       <r>   -0.2650    1.0000 </r>
       <r>    2.2283    1.0000 </r>
       <r>    2.3986    1.0000 </r>
       <r>    2.3986    1.0000 </r>
       <r>    2.4032    1.0000 </r>
       <r>    2.4033    1.0000 </r>
       <r>    2.4063    1.0000 </r>
       <r>    2.4063    1.0000 </r>
       <r>    2.4100    1.0000 </r>
       <r>    2.4100    1.0000 </r>
       <r>    2.8506    1.0000 </r>
       <r>    2.8553    1.0000 </r>
       <r>    3.3345    1.0000 </r>
       <r>    3.3345    1.0000 </r>
       <r>    3.3395    1.0000 </r>
       <r>    3.3396    1.0000 </r>
       <r>    3.3427    1.0000 </r>
       <r>    3.3427    1.0000 </r>
       <r>    3.3487    1.0000 </r>
       <r>    3.3487    1.0000 </r>
       <r>    3.6424    1.0001 </r>
       <r>    4.5437   -0.0299 </r>
       <r>    4.9674   -0.0000 </r>
       <r>    4.9719   -0.0000 </r>
       <r>    5.1692   -0.0000 </r>
       <r>    7.0610   -0.0000 </r>
       <r>    7.0610   -0.0000 </r>
       <r>    7.0820   -0.0000 </r>
       <r>    7.0821   -0.0000 </r>
       <r>    7.0841   -0.0000 </r>
       <r>    7.0842   -0.0000 </r>
       <r>    7.1148   -0.0000 </r>
       <r>    7.1149   -0.0000 </r>
       <r>    7.2403   -0.0000 </r>
       <r>    7.2417   -0.0000 </r>
       <r>    7.2709   -0.0000 </r>
       <r>    7.2767   -0.0000 </r>
      </set>
      <set comment="kpoint 2">
       <r>  -50.8476    1.0000 </r>
       <r>  -50.8448    1.0000 </r>
       <r>  -50.8448    1.0000 </r>
       <r>  -50.8418    1.0000 </r>
       <r>  -26.9144    1.0000 </r>
       <r>  -26.9111    1.0000 </r>
       <r>  -26.9111    1.0000 </r>
       <r>  -26.9102    1.0000 </r>
       <r>  -26.9090    1.0000 </r>
       <r>  -26.9079    1.0000 </r>
       <r>  -26.9078    1.0000 </r>
       <r>  -26.9053    1.0000 </r>
       <r>  -26.8485    1.0000 </r>
       <r>  -26.8461    1.0000 </r>
       <r>  -26.8460    1.0000 </r>
       <r>  -26.8434    1.0000 </r>
       <r>   -8.9140    1.0000 </r>
       <r>   -8.8746    1.0000 </r>
       <r>   -8.8732    1.0000 </r>
       <r>   -8.8268    1.0000 </r>
       <r>   -8.2099    1.0000 </r>
       <r>   -8.1468    1.0000 </r>
       <r>   -8.1462    1.0000 </r>
       <r>   -8.0898    1.0000 </r>
       <r>   -0.3005    1.0000 </r>
       <r>   -0.0783    1.0000 </r>
       <r>   -0.0771    1.0000 </r>
       <r>    0.2260    1.0000 </r>
       <r>    1.2551    1.0000 </r>
       <r>    1.2731    1.0000 </r>
       <r>    1.2746    1.0000 </r>
       <r>    1.2957    1.0000 </r>
       <r>    1.5581    1.0000 </r>
       <r>    1.8379    1.0000 </r>
       <r>    1.8407    1.0000 </r>
       <r>    2.0013    1.0000 </r>
       <r>    2.6848    1.0000 </r>
       <r>    2.6974    1.0000 </r>
       <r>    2.6991    1.0000 </r>
       <r>    2.7158    1.0000 </r>
       <r>    2.7785    1.0000 </r>
       <r>    2.7918    1.0000 </r>
       <r>    2.7957    1.0000 </r>
       <r>    2.8053    1.0000 </r>
       <r>    3.0743    1.0000 </r>
       <r>    3.3139    1.0000 </r>
       <r>    3.3233    1.0000 </r>
       <r>    3.6828    1.0002 </r>
       <r>    4.2895    0.3524 </r>
       <r>    4.3915    0.0445 </r>
       <r>    4.3923    0.0430 </r>
       <r>    4.4408   -0.0169 </r>
       <r>    6.3746   -0.0000 </r>
       <r>    6.5643   -0.0000 </r>
       <r>    6.5726   -0.0000 </r>
       <r>    6.7744   -0.0000 </r>
       <r>    6.8081   -0.0000 </r>
       <r>    6.8489   -0.0000 </r>
       <r>    6.8516   -0.0000 </r>
       <r>    6.8965   -0.0000 </r>
       <r>    6.9951   -0.0000 </r>
       <r>    7.0886   -0.0000 </r>
       <r>    7.0934   -0.0000 </r>
       <r>    7.1421   -0.0000 </r>
      </set>
      <set comment="kpoint 3">
       <r>  -50.8371    1.0000 </r>
       <r>  -50.8343    1.0000 </r>
       <r>  -50.8342    1.0000 </r>
       <r>  -50.8312    1.0000 </r>
       <r>  -27.0367    1.0000 </r>
       <r>  -27.0344    1.0000 </r>
       <r>  -27.0343    1.0000 </r>
       <r>  -27.0319    1.0000 </r>
       <r>  -26.8863    1.0000 </r>
       <r>  -26.8830    1.0000 </r>
       <r>  -26.8830    1.0000 </r>
       <r>  -26.8808    1.0000 </r>
       <r>  -26.8775    1.0000 </r>
       <r>  -26.8751    1.0000 </r>
       <r>  -26.8751    1.0000 </r>
       <r>  -26.8724    1.0000 </r>
       <r>   -8.1349    1.0000 </r>
       <r>   -8.1123    1.0000 </r>
       <r>   -8.1113    1.0000 </r>
       <r>   -8.0838    1.0000 </r>
       <r>   -7.8353    1.0000 </r>
       <r>   -7.8028    1.0000 </r>
       <r>   -7.8028    1.0000 </r>
       <r>   -7.7751    1.0000 </r>
       <r>   -0.4716    1.0000 </r>
       <r>   -0.4360    1.0000 </r>
       <r>   -0.4354    1.0000 </r>
       <r>   -0.4036    1.0000 </r>
       <r>    0.3646    1.0000 </r>
       <r>    0.4202    1.0000 </r>
       <r>    0.4524    1.0000 </r>
       <r>    0.5335    1.0000 </r>
       <r>    0.7772    1.0000 </r>
       <r>    0.8723    1.0000 </r>
       <r>    0.8871    1.0000 </r>
       <r>    0.9688    1.0000 </r>
       <r>    1.9507    1.0000 </r>
       <r>    1.9687    1.0000 </r>
       <r>    1.9714    1.0000 </r>
       <r>    1.9905    1.0000 </r>
       <r>    2.6087    1.0000 </r>
       <r>    2.8452    1.0000 </r>
       <r>    2.8734    1.0000 </r>
       <r>    3.1180    1.0000 </r>
       <r>    3.3411    1.0000 </r>
       <r>    3.3786    1.0000 </r>
       <r>    3.3807    1.0000 </r>
       <r>    3.4177    1.0000 </r>
       <r>    3.8504    1.0075 </r>
       <r>    3.9281    1.0217 </r>
       <r>    3.9282    1.0217 </r>
       <r>    3.9826    1.0332 </r>
       <r>    6.6236   -0.0000 </r>
       <r>    6.6412   -0.0000 </r>
       <r>    6.6413   -0.0000 </r>
       <r>    6.6604   -0.0000 </r>
       <r>    6.7819   -0.0000 </r>
       <r>    6.8964   -0.0000 </r>
       <r>    6.9071   -0.0000 </r>
       <r>    7.0871   -0.0000 </r>
       <r>    7.5587   -0.0000 </r>
       <r>    7.8170   -0.0000 </r>
       <r>    7.8188   -0.0000 </r>
       <r>    8.0376   -0.0000 </r>
      </set>
      <set comment="kpoint 4">
       <r>  -50.8390    1.0000 </r>
       <r>  -50.8363    1.0000 </r>
       <r>  -50.8362    1.0000 </r>
       <r>  -50.8332    1.0000 </r>
       <r>  -26.9925    1.0000 </r>
       <r>  -26.9902    1.0000 </r>
       <r>  -26.9900    1.0000 </r>
       <r>  -26.9876    1.0000 </r>
       <r>  -26.8927    1.0000 </r>
       <r>  -26.8916    1.0000 </r>
       <r>  -26.8904    1.0000 </r>
       <r>  -26.8903    1.0000 </r>
       <r>  -26.8884    1.0000 </r>
       <r>  -26.8883    1.0000 </r>
       <r>  -26.8877    1.0000 </r>
       <r>  -26.8861    1.0000 </r>
       <r>   -8.3075    1.0000 </r>
       <r>   -8.2787    1.0000 </r>
       <r>   -8.2776    1.0000 </r>
       <r>   -8.2426    1.0000 </r>
       <r>   -7.9134    1.0000 </r>
       <r>   -7.8713    1.0000 </r>
       <r>   -7.8712    1.0000 </r>
       <r>   -7.8352    1.0000 </r>
       <r>    0.0193    1.0000 </r>
       <r>    0.1119    1.0000 </r>
       <r>    0.1141    1.0000 </r>
       <r>    0.2003    1.0000 </r>
       <r>    0.7346    1.0000 </r>
       <r>    0.7457    1.0000 </r>
       <r>    0.7634    1.0000 </r>
       <r>    0.8273    1.0000 </r>
       <r>    0.8729    1.0000 </r>
       <r>    0.9353    1.0000 </r>
       <r>    0.9575    1.0000 </r>
       <r>    0.9601    1.0000 </r>
       <r>    1.5461    1.0000 </r>
       <r>    1.7015    1.0000 </r>
       <r>    1.7114    1.0000 </r>
       <r>    1.8212    1.0000 </r>
       <r>    2.4524    1.0000 </r>
       <r>    2.4703    1.0000 </r>
       <r>    2.4763    1.0000 </r>
       <r>    2.4996    1.0000 </r>
       <r>    3.1303    1.0000 </r>
       <r>    3.2492    1.0000 </r>
       <r>    3.2618    1.0000 </r>
       <r>    3.3971    1.0000 </r>
       <r>    4.0679    1.0163 </r>
       <r>    4.0909    0.9939 </r>
       <r>    4.0924    0.9921 </r>
       <r>    4.1141    0.9596 </r>
       <r>    6.2276   -0.0000 </r>
       <r>    6.4409   -0.0000 </r>
       <r>    6.4513   -0.0000 </r>
       <r>    6.7123   -0.0000 </r>
       <r>    6.8794   -0.0000 </r>
       <r>    6.8879   -0.0000 </r>
       <r>    6.8894   -0.0000 </r>
       <r>    6.9775   -0.0000 </r>
       <r>    7.0145   -0.0000 </r>
       <r>    7.2831   -0.0000 </r>
       <r>    7.2852   -0.0000 </r>
       <r>    7.3906   -0.0000 </r>
      </set>
      <set comment="kpoint 5">
       <r>  -50.8338    1.0000 </r>
       <r>  -50.8310    1.0000 </r>
       <r>  -50.8310    1.0000 </r>
       <r>  -50.8279    1.0000 </r>
       <r>  -27.0322    1.0000 </r>
       <r>  -27.0299    1.0000 </r>
       <r>  -27.0298    1.0000 </r>
       <r>  -27.0274    1.0000 </r>
       <r>  -26.9308    1.0000 </r>
       <r>  -26.9284    1.0000 </r>
       <r>  -26.9284    1.0000 </r>
       <r>  -26.9258    1.0000 </r>
       <r>  -26.8776    1.0000 </r>
       <r>  -26.8743    1.0000 </r>
       <r>  -26.8742    1.0000 </r>
       <r>  -26.8720    1.0000 </r>
       <r>   -7.8617    1.0000 </r>
       <r>   -7.8518    1.0000 </r>
       <r>   -7.8509    1.0000 </r>
       <r>   -7.8394    1.0000 </r>
       <r>   -7.6895    1.0000 </r>
       <r>   -7.6759    1.0000 </r>
       <r>   -7.6756    1.0000 </r>
       <r>   -7.6635    1.0000 </r>
       <r>   -0.2187    1.0000 </r>
       <r>   -0.2001    1.0000 </r>
       <r>   -0.1989    1.0000 </r>
       <r>   -0.1767    1.0000 </r>
       <r>    0.0312    1.0000 </r>
       <r>    0.0601    1.0000 </r>
       <r>    0.0660    1.0000 </r>
       <r>    0.0892    1.0000 </r>
       <r>    0.9212    1.0000 </r>
       <r>    0.9894    1.0000 </r>
       <r>    0.9925    1.0000 </r>
       <r>    1.0623    1.0000 </r>
       <r>    1.6689    1.0000 </r>
       <r>    1.7375    1.0000 </r>
       <r>    1.7404    1.0000 </r>
       <r>    1.7873    1.0000 </r>
       <r>    1.8113    1.0000 </r>
       <r>    1.8905    1.0000 </r>
       <r>    1.8907    1.0000 </r>
       <r>    1.9685    1.0000 </r>
       <r>    2.6256    1.0000 </r>
       <r>    2.7363    1.0000 </r>
       <r>    2.7593    1.0000 </r>
       <r>    2.8502    1.0000 </r>
       <r>    4.4605   -0.0282 </r>
       <r>    4.5004   -0.0354 </r>
       <r>    4.5020   -0.0354 </r>
       <r>    4.5334   -0.0319 </r>
       <r>    6.4227   -0.0000 </r>
       <r>    6.4362   -0.0000 </r>
       <r>    6.4384   -0.0000 </r>
       <r>    6.4535   -0.0000 </r>
       <r>    7.2850   -0.0000 </r>
       <r>    7.3331   -0.0000 </r>
       <r>    7.3733   -0.0000 </r>
       <r>    7.4764   -0.0000 </r>
       <r>    7.6611   -0.0000 </r>
       <r>    7.6787   -0.0000 </r>
       <r>    7.7391   -0.0000 </r>
       <r>    7.7838   -0.0000 </r>
      </set>
     </set>
    </set>
   </array>
  </eigenvalues>
  <separator name="orbital magnetization" >
   <v name="MAGDIPOLOUT">      0.00000000      0.00000000      0.00000000</v>
  </separator>
  <dielectricfunction comment="density-density">
   <imag>
    <array>
     <dimension dim="1">gridpoints</dimension>
     <field>energy</field>
     <field>xx</field>
     <field>yy</field>
     <field>zz</field>
     <field>xy</field>
     <field>yz</field>
     <field>zx</field>
     <set>
      <r>     0.0000     0.0000     0.0000     0.0000     0.0000     0.0000     0.0000 </r>
      <r>     0.0707     0.0000     0.0000     0.0000     0.0000     0.0000     0.0000 </r>
      <r>     0.1415     0.0000     0.0000     0.0000     0.0000     0.0000     0.0000 </r>
      <r>     0.2122     0.0000     0.0000     0.0000     0.0000     0.0000     0.0000 </r>
      <r>     0.2830     0.0000     0.0000     0.0000     0.0000     0.0000     0.0000 </r>
      <r>     0.3537     0.0000     0.0000     0.0000     0.0000     0.0000     0.0000 </r>
      <r>     0.4244     0.0000     0.0000     0.0000     0.0000     0.0000     0.0000 </r>
      <r>     0.4952     0.0000     0.0000     0.0000     0.0000     0.0000     0.0000 </r>
      <r>     0.5659     0.0000     0.0000     0.0000     0.0000     0.0000     0.0000 </r>
      <r>     0.6367     0.0000     0.0000     0.0000     0.0000     0.0000     0.0000 </r>
      <r>     0.7074     0.0000     0.0000     0.0000     0.0000     0.0000     0.0000 </r>
      <r>     0.7781     0.0000     0.0000     0.0000     0.0000     0.0000     0.0000 </r>
      <r>     0.8489     0.0000     0.0000     0.0000     0.0000     0.0000     0.0000 </r>
      <r>     0.9196     0.0000     0.0000     0.0000     0.0000     0.0000     0.0000 </r>
      <r>     0.9904     0.0000     0.0000     0.0000     0.0000     0.0000     0.0000 </r>
      <r>     1.0611     0.0000     0.0000     0.0000     0.0000     0.0000     0.0000 </r>
      <r>     1.1319     0.0000     0.0000     0.0000     0.0000     0.0000     0.0000 </r>
      <r>     1.2026     0.0000     0.0000     0.0000     0.0000     0.0000     0.0000 </r>
      <r>     1.2733     0.0000     0.0000     0.0000     0.0000     0.0000     0.0000 </r>
      <r>     1.3441     0.0000     0.0000     0.0000     0.0000     0.0000     0.0000 </r>
      <r>     1.4148     0.0000     0.0000     0.0000     0.0000     0.0000     0.0000 </r>
      <r>     1.4856     0.0000     0.0000     0.0000     0.0000     0.0000     0.0000 </r>
      <r>     1.5563     0.0000     0.0000     0.0000     0.0000     0.0000     0.0000 </r>
      <r>     1.6270     0.0000     0.0000     0.0000     0.0000     0.0000     0.0000 </r>
      <r>     1.6978     0.0000     0.0000     0.0000     0.0000     0.0000     0.0000 </r>
      <r>     1.7685     0.0000     0.0000     0.0000     0.0000     0.0000     0.0000 </r>
      <r>     1.8393     0.0000     0.0000     0.0000     0.0000     0.0000     0.0000 </r>
      <r>     1.9100     0.0000     0.0000     0.0000     0.0000     0.0000     0.0000 </r>
      <r>     1.9807     0.0000     0.0000     0.0000     0.0000     0.0000     0.0000 </r>
      <r>     2.0515     0.0000     0.0000     0.0000     0.0000     0.0000     0.0000 </r>
      <r>     2.1222     0.0000     0.0000     0.0000     0.0000     0.0000     0.0000 </r>
      <r>     2.1930     0.0000     0.0000     0.0000     0.0000     0.0000     0.0000 </r>
      <r>     2.2637     0.0000     0.0000     0.0000     0.0000     0.0000     0.0000 </r>
      <r>     2.3344     0.0000     0.0000     0.0000     0.0000     0.0000     0.0000 </r>
      <r>     2.4052     0.0000     0.0000     0.0000     0.0000     0.0000     0.0000 </r>
      <r>     2.4759     0.0000     0.0000     0.0000     0.0000     0.0000     0.0000 </r>
      <r>     2.5467     0.0000     0.0000     0.0000     0.0000     0.0000     0.0000 </r>
      <r>     2.6174     0.0000     0.0000     0.0000     0.0000     0.0000     0.0000 </r>
      <r>     2.6881     0.0000     0.0000     0.0000     0.0000     0.0000     0.0000 </r>
      <r>     2.7589     0.0000     0.0000     0.0000     0.0000     0.0000     0.0000 </r>
      <r>     2.8296     0.0000     0.0000     0.0000     0.0000     0.0000     0.0000 </r>
      <r>     2.9004     0.0000     0.0000     0.0000     0.0000     0.0000     0.0000 </r>
      <r>     2.9711     0.0000     0.0000     0.0000     0.0000     0.0000     0.0000 </r>
      <r>     3.0419     0.0000     0.0000     0.0000     0.0000     0.0000     0.0000 </r>
      <r>     3.1126     0.0000     0.0000     0.0000     0.0000     0.0000     0.0000 </r>
      <r>     3.1833     0.0000     0.0000     0.0000     0.0000     0.0000     0.0000 </r>
      <r>     3.2541     0.0000     0.0000     0.0000     0.0000     0.0000     0.0000 </r>
      <r>     3.3248     0.0000     0.0000     0.0000     0.0000     0.0000     0.0000 </r>
      <r>     3.3956     0.0000     0.0000     0.0000     0.0000     0.0000     0.0000 </r>
      <r>     3.4663     0.0000     0.0000     0.0000     0.0000     0.0000     0.0000 </r>
      <r>     3.5370     0.0000     0.0000     0.0000     0.0000     0.0000     0.0000 </r>
      <r>     3.6078     0.0000     0.0000     0.0000     0.0000     0.0000     0.0000 </r>
      <r>     3.6785     0.0000     0.0000     0.0000     0.0000     0.0000     0.0000 </r>
      <r>     3.7493     0.0000     0.0000     0.0000     0.0000     0.0000     0.0000 </r>
      <r>     3.8200     0.0000     0.0000     0.0000     0.0000     0.0000     0.0000 </r>
      <r>     3.8907     0.0000     0.0000     0.0000     0.0000     0.0000     0.0000 </r>
      <r>     3.9615     0.0000     0.0000     0.0000     0.0000     0.0000     0.0000 </r>
      <r>     4.0322     0.0000     0.0000     0.0000     0.0000     0.0000     0.0000 </r>
      <r>     4.1030     0.0000     0.0000     0.0000     0.0000     0.0000     0.0000 </r>
      <r>     4.1737     0.0000     0.0000     0.0000     0.0000     0.0000     0.0000 </r>
      <r>     4.2444     0.0000     0.0000     0.0000     0.0000     0.0000     0.0000 </r>
      <r>     4.3152     0.0000     0.0000     0.0000     0.0000     0.0000     0.0000 </r>
      <r>     4.3859     0.0000     0.0000     0.0000     0.0000     0.0000     0.0000 </r>
      <r>     4.4567     0.0000     0.0000     0.0000     0.0000     0.0000     0.0000 </r>
      <r>     4.5274     0.0000     0.0000     0.0000     0.0000     0.0000     0.0000 </r>
      <r>     4.5982     0.0000     0.0000     0.0000     0.0000     0.0000     0.0000 </r>
      <r>     4.6689     0.0000     0.0000     0.0000     0.0000     0.0000     0.0000 </r>
      <r>     4.7396     0.0000     0.0000     0.0000     0.0000     0.0000     0.0000 </r>
      <r>     4.8104     0.0000     0.0000     0.0000     0.0000     0.0000     0.0000 </r>
      <r>     4.8811     0.0000     0.0000     0.0000     0.0000     0.0000     0.0000 </r>
      <r>     4.9519     0.0000     0.0000     0.0000     0.0000     0.0000     0.0000 </r>
      <r>     5.0226     0.0000     0.0000     0.0000     0.0000     0.0000     0.0000 </r>
      <r>     5.0933     0.0000     0.0000     0.0000     0.0000     0.0000     0.0000 </r>
      <r>     5.1641     0.0000     0.0000     0.0000     0.0000     0.0000     0.0000 </r>
      <r>     5.2348     0.0000     0.0000     0.0000     0.0000     0.0000     0.0000 </r>
      <r>     5.3056     0.0000     0.0000     0.0000     0.0000     0.0000     0.0000 </r>
      <r>     5.3763     0.0000     0.0000     0.0000     0.0000     0.0000     0.0000 </r>
      <r>     5.4470     0.0000     0.0000     0.0000     0.0000     0.0000     0.0000 </r>
      <r>     5.5178     0.0000     0.0000     0.0000     0.0000     0.0000     0.0000 </r>
      <r>     5.5885     0.0000     0.0000     0.0000     0.0000     0.0000     0.0000 </r>
      <r>     5.6593     0.0000     0.0000     0.0000     0.0000     0.0000     0.0000 </r>
      <r>     5.7300     0.0000     0.0000     0.0000     0.0000     0.0000     0.0000 </r>
      <r>     5.8007     0.0000     0.0000     0.0000     0.0000     0.0000     0.0000 </r>
      <r>     5.8715     0.0000     0.0000     0.0000     0.0000     0.0000     0.0000 </r>
      <r>     5.9422     0.0000     0.0000     0.0000     0.0000     0.0000     0.0000 </r>
      <r>     6.0130     0.0000     0.0000     0.0000     0.0000     0.0000     0.0000 </r>
      <r>     6.0837     0.0000     0.0000     0.0000     0.0000     0.0000     0.0000 </r>
      <r>     6.1544     0.0000     0.0000     0.0000     0.0000     0.0000     0.0000 </r>
      <r>     6.2252     0.0000     0.0000     0.0000     0.0000     0.0000     0.0000 </r>
      <r>     6.2959     0.0000     0.0000     0.0000     0.0000     0.0000     0.0000 </r>
      <r>     6.3667     0.0000     0.0000     0.0000     0.0000     0.0000     0.0000 </r>
      <r>     6.4374     0.0000     0.0000     0.0000     0.0000     0.0000     0.0000 </r>
      <r>     6.5082     0.0000     0.0000     0.0000     0.0000     0.0000     0.0000 </r>
      <r>     6.5789     0.0000     0.0000     0.0000     0.0000     0.0000     0.0000 </r>
      <r>     6.6496     0.0000     0.0000     0.0000     0.0000     0.0000     0.0000 </r>
      <r>     6.7204     0.0000     0.0000     0.0000     0.0000     0.0000     0.0000 </r>
      <r>     6.7911     0.0000     0.0000     0.0000     0.0000     0.0000     0.0000 </r>
      <r>     6.8619     0.0000     0.0000     0.0000     0.0000     0.0000     0.0000 </r>
      <r>     6.9326     0.0000     0.0000     0.0000     0.0000     0.0000     0.0000 </r>
      <r>     7.0033     0.0000     0.0000     0.0000     0.0000     0.0000     0.0000 </r>
      <r>     7.0741     0.0000     0.0000     0.0000     0.0000     0.0000     0.0000 </r>
      <r>     7.1448     0.0000     0.0000     0.0000     0.0000     0.0000     0.0000 </r>
      <r>     7.2156     0.0000     0.0000     0.0000     0.0000     0.0000     0.0000 </r>
      <r>     7.2863     0.0000     0.0000     0.0000     0.0000     0.0000     0.0000 </r>
      <r>     7.3570     0.0000     0.0000     0.0000     0.0000     0.0000     0.0000 </r>
      <r>     7.4278     0.0000     0.0000     0.0000     0.0000     0.0000     0.0000 </r>
      <r>     7.4985     0.0000     0.0000     0.0000     0.0000     0.0000     0.0000 </r>
      <r>     7.5693     0.0000     0.0000     0.0000     0.0000     0.0000     0.0000 </r>
      <r>     7.6400     0.0000     0.0000     0.0000     0.0000     0.0000     0.0000 </r>
      <r>     7.7107     0.0000     0.0000     0.0000     0.0000     0.0000     0.0000 </r>
      <r>     7.7815     0.0000     0.0000     0.0000     0.0000     0.0000     0.0000 </r>
      <r>     7.8522     0.0000     0.0000     0.0000     0.0000     0.0000     0.0000 </r>
      <r>     7.9230     0.0000     0.0000     0.0000     0.0000     0.0000     0.0000 </r>
      <r>     7.9937     0.0000     0.0000     0.0000     0.0000     0.0000     0.0000 </r>
      <r>     8.0644     0.0000     0.0000     0.0000     0.0000     0.0000     0.0000 </r>
      <r>     8.1352     0.0000     0.0000     0.0000     0.0000     0.0000     0.0000 </r>
      <r>     8.2059     0.0000     0.0000     0.0000     0.0000     0.0000     0.0000 </r>
      <r>     8.2767     0.0000     0.0000     0.0000     0.0000     0.0000     0.0000 </r>
      <r>     8.3474     0.0000     0.0000     0.0000     0.0000     0.0000     0.0000 </r>
      <r>     8.4182     0.0000     0.0000     0.0000     0.0000     0.0000     0.0000 </r>
      <r>     8.4889     0.0000     0.0000     0.0000     0.0000     0.0000     0.0000 </r>
      <r>     8.5596     0.0000     0.0000     0.0000     0.0000     0.0000     0.0000 </r>
      <r>     8.6304     0.0000     0.0000     0.0000     0.0000     0.0000     0.0000 </r>
      <r>     8.7011     0.0000     0.0000     0.0000     0.0000     0.0000     0.0000 </r>
      <r>     8.7719     0.0000     0.0000     0.0000     0.0000     0.0000     0.0000 </r>
      <r>     8.8426     0.0000     0.0000     0.0000     0.0000     0.0000     0.0000 </r>
      <r>     8.9133     0.0000     0.0000     0.0000     0.0000     0.0000     0.0000 </r>
      <r>     8.9841     0.0000     0.0000     0.0000     0.0000     0.0000     0.0000 </r>
      <r>     9.0548     0.0000     0.0000     0.0000     0.0000     0.0000     0.0000 </r>
      <r>     9.1256     0.0000     0.0000     0.0000     0.0000     0.0000     0.0000 </r>
      <r>     9.1963     0.0000     0.0000     0.0000     0.0000     0.0000     0.0000 </r>
      <r>     9.2670     0.0000     0.0000     0.0000     0.0000     0.0000     0.0000 </r>
      <r>     9.3378     0.0000     0.0000     0.0000     0.0000     0.0000     0.0000 </r>
      <r>     9.4085     0.0000     0.0000     0.0000     0.0000     0.0000     0.0000 </r>
      <r>     9.4793     0.0000     0.0000     0.0000     0.0000     0.0000     0.0000 </r>
      <r>     9.5500     0.0000     0.0000     0.0000     0.0000     0.0000     0.0000 </r>
      <r>     9.6207     0.0000     0.0000     0.0000     0.0000     0.0000     0.0000 </r>
      <r>     9.6915     0.0000     0.0000     0.0000     0.0000     0.0000     0.0000 </r>
      <r>     9.7622     0.0000     0.0000     0.0000     0.0000     0.0000     0.0000 </r>
      <r>     9.8330     0.0000     0.0000     0.0000     0.0000     0.0000     0.0000 </r>
      <r>     9.9037     0.0000     0.0000     0.0000     0.0000     0.0000     0.0000 </r>
      <r>     9.9745     0.0000     0.0000     0.0000     0.0000     0.0000     0.0000 </r>
      <r>    10.0452     0.0000     0.0000     0.0000     0.0000     0.0000     0.0000 </r>
      <r>    10.1159     0.0000     0.0000     0.0000     0.0000     0.0000     0.0000 </r>
      <r>    10.1867     0.0000     0.0000     0.0000     0.0000     0.0000     0.0000 </r>
      <r>    10.2574     0.0000     0.0000     0.0000     0.0000     0.0000     0.0000 </r>
      <r>    10.3282     0.0000     0.0000     0.0000     0.0000     0.0000     0.0000 </r>
      <r>    10.3989     0.0000     0.0000     0.0000     0.0000     0.0000     0.0000 </r>
      <r>    10.4696     0.0000     0.0000     0.0000     0.0000     0.0000     0.0000 </r>
      <r>    10.5404     0.0000     0.0000     0.0000     0.0000     0.0000     0.0000 </r>
      <r>    10.6111     0.0000     0.0000     0.0000     0.0000     0.0000     0.0000 </r>
      <r>    10.6819     0.0000     0.0000     0.0000     0.0000     0.0000     0.0000 </r>
      <r>    10.7526     0.0000     0.0000     0.0000     0.0000     0.0000     0.0000 </r>
      <r>    10.8233     0.0000     0.0000     0.0000     0.0000     0.0000     0.0000 </r>
      <r>    10.8941     0.0000     0.0000     0.0000     0.0000     0.0000     0.0000 </r>
      <r>    10.9648     0.0000     0.0000     0.0000     0.0000     0.0000     0.0000 </r>
      <r>    11.0356     0.0000     0.0000     0.0000     0.0000     0.0000     0.0000 </r>
      <r>    11.1063     0.0000     0.0000     0.0000     0.0000     0.0000     0.0000 </r>
      <r>    11.1770     0.0000     0.0000     0.0000     0.0000     0.0000     0.0000 </r>
      <r>    11.2478     0.0000     0.0000     0.0000     0.0000     0.0000     0.0000 </r>
      <r>    11.3185     0.0000     0.0000     0.0000     0.0000     0.0000     0.0000 </r>
      <r>    11.3893     0.0000     0.0000     0.0000     0.0000     0.0000     0.0000 </r>
      <r>    11.4600     0.0000     0.0000     0.0000     0.0000     0.0000     0.0000 </r>
      <r>    11.5307     0.0000     0.0000     0.0000     0.0000     0.0000     0.0000 </r>
      <r>    11.6015     0.0000     0.0000     0.0000     0.0000     0.0000     0.0000 </r>
      <r>    11.6722     0.0000     0.0000     0.0000     0.0000     0.0000     0.0000 </r>
      <r>    11.7430     0.0000     0.0000     0.0000     0.0000     0.0000     0.0000 </r>
      <r>    11.8137     0.0000     0.0000     0.0000     0.0000     0.0000     0.0000 </r>
      <r>    11.8845     0.0000     0.0000     0.0000     0.0000     0.0000     0.0000 </r>
      <r>    11.9552     0.0000     0.0000     0.0000     0.0000     0.0000     0.0000 </r>
      <r>    12.0259     0.0000     0.0000     0.0000     0.0000     0.0000     0.0000 </r>
      <r>    12.0967     0.0000     0.0000     0.0000     0.0000     0.0000     0.0000 </r>
      <r>    12.1674     0.0000     0.0000     0.0000     0.0000     0.0000     0.0000 </r>
      <r>    12.2382     0.0000     0.0000     0.0000     0.0000     0.0000     0.0000 </r>
      <r>    12.3089     0.0000     0.0000     0.0000     0.0000     0.0000     0.0000 </r>
      <r>    12.3796     0.0000     0.0000     0.0000     0.0000     0.0000     0.0000 </r>
      <r>    12.4504     0.0000     0.0000     0.0000     0.0000     0.0000     0.0000 </r>
      <r>    12.5211     0.0000     0.0000     0.0000     0.0000     0.0000     0.0000 </r>
      <r>    12.5919     0.0000     0.0000     0.0000     0.0000     0.0000     0.0000 </r>
      <r>    12.6626     0.0000     0.0000     0.0000     0.0000     0.0000     0.0000 </r>
      <r>    12.7333     0.0000     0.0000     0.0000     0.0000     0.0000     0.0000 </r>
      <r>    12.8041     0.0000     0.0000     0.0000     0.0000     0.0000     0.0000 </r>
      <r>    12.8748     0.0000     0.0000     0.0000     0.0000     0.0000     0.0000 </r>
      <r>    12.9456     0.0000     0.0000     0.0000     0.0000     0.0000     0.0000 </r>
      <r>    13.0163     0.0000     0.0000     0.0000     0.0000     0.0000     0.0000 </r>
      <r>    13.0870     0.0000     0.0000     0.0000     0.0000     0.0000     0.0000 </r>
      <r>    13.1578     0.0000     0.0000     0.0000     0.0000     0.0000     0.0000 </r>
      <r>    13.2285     0.0000     0.0000     0.0000     0.0000     0.0000     0.0000 </r>
      <r>    13.2993     0.0000     0.0000     0.0000     0.0000     0.0000     0.0000 </r>
      <r>    13.3700     0.0000     0.0000     0.0000     0.0000     0.0000     0.0000 </r>
      <r>    13.4407     0.0000     0.0000     0.0000     0.0000     0.0000     0.0000 </r>
      <r>    13.5115     0.0000     0.0000     0.0000     0.0000     0.0000     0.0000 </r>
      <r>    13.5822     0.0000     0.0000     0.0000     0.0000     0.0000     0.0000 </r>
      <r>    13.6530     0.0000     0.0000     0.0000     0.0000     0.0000     0.0000 </r>
      <r>    13.7237     0.0000     0.0000     0.0000     0.0000     0.0000     0.0000 </r>
      <r>    13.7945     0.0000     0.0000     0.0000     0.0000     0.0000     0.0000 </r>
      <r>    13.8652     0.0000     0.0000     0.0000     0.0000     0.0000     0.0000 </r>
      <r>    13.9359     0.0000     0.0000     0.0000     0.0000     0.0000     0.0000 </r>
      <r>    14.0067     0.0000     0.0000     0.0000     0.0000     0.0000     0.0000 </r>
      <r>    14.0774     0.0000     0.0000     0.0000     0.0000     0.0000     0.0000 </r>
      <r>    14.1482     0.0000     0.0000     0.0000     0.0000     0.0000     0.0000 </r>
      <r>    14.2189     0.0000     0.0000     0.0000     0.0000     0.0000     0.0000 </r>
      <r>    14.2896     0.0000     0.0000     0.0000     0.0000     0.0000     0.0000 </r>
      <r>    14.3604     0.0000     0.0000     0.0000     0.0000     0.0000     0.0000 </r>
      <r>    14.4311     0.0000     0.0000     0.0000     0.0000     0.0000     0.0000 </r>
      <r>    14.5019     0.0000     0.0000     0.0000     0.0000     0.0000     0.0000 </r>
      <r>    14.5726     0.0000     0.0000     0.0000     0.0000     0.0000     0.0000 </r>
      <r>    14.6433     0.0000     0.0000     0.0000     0.0000     0.0000     0.0000 </r>
      <r>    14.7141     0.0000     0.0000     0.0000     0.0000     0.0000     0.0000 </r>
      <r>    14.7848     0.0000     0.0000     0.0000     0.0000     0.0000     0.0000 </r>
      <r>    14.8556     0.0000     0.0000     0.0000     0.0000     0.0000     0.0000 </r>
      <r>    14.9263     0.0000     0.0000     0.0000     0.0000     0.0000     0.0000 </r>
      <r>    14.9970     0.0000     0.0000     0.0000     0.0000     0.0000     0.0000 </r>
      <r>    15.0678     0.0000     0.0000     0.0000     0.0000     0.0000     0.0000 </r>
      <r>    15.1385     0.0000     0.0000     0.0000     0.0000     0.0000     0.0000 </r>
      <r>    15.2093     0.0000     0.0000     0.0000     0.0000     0.0000     0.0000 </r>
      <r>    15.2800     0.0000     0.0000     0.0000     0.0000     0.0000     0.0000 </r>
      <r>    15.3508     0.0000     0.0000     0.0000     0.0000     0.0000     0.0000 </r>
      <r>    15.4215     0.0000     0.0000     0.0000     0.0000     0.0000     0.0000 </r>
      <r>    15.4922     0.0000     0.0000     0.0000     0.0000     0.0000     0.0000 </r>
      <r>    15.5630     0.0000     0.0000     0.0000     0.0000     0.0000     0.0000 </r>
      <r>    15.6337     0.0000     0.0000     0.0000     0.0000     0.0000     0.0000 </r>
      <r>    15.7045     0.0000     0.0000     0.0000     0.0000     0.0000     0.0000 </r>
      <r>    15.7752     0.0000     0.0000     0.0000     0.0000     0.0000     0.0000 </r>
      <r>    15.8459     0.0000     0.0000     0.0000     0.0000     0.0000     0.0000 </r>
      <r>    15.9167     0.0000     0.0000     0.0000     0.0000     0.0000     0.0000 </r>
      <r>    15.9874     0.0000     0.0000     0.0000     0.0000     0.0000     0.0000 </r>
      <r>    16.0582     0.0000     0.0000     0.0000     0.0000     0.0000     0.0000 </r>
      <r>    16.1289     0.0000     0.0000     0.0000     0.0000     0.0000     0.0000 </r>
      <r>    16.1996     0.0000     0.0000     0.0000     0.0000     0.0000     0.0000 </r>
      <r>    16.2704     0.0000     0.0000     0.0000     0.0000     0.0000     0.0000 </r>
      <r>    16.3411     0.0000     0.0000     0.0000     0.0000     0.0000     0.0000 </r>
      <r>    16.4119     0.0000     0.0000     0.0000     0.0000     0.0000     0.0000 </r>
      <r>    16.4826     0.0000     0.0000     0.0000     0.0000     0.0000     0.0000 </r>
      <r>    16.5533     0.0000     0.0000     0.0000     0.0000     0.0000     0.0000 </r>
      <r>    16.6241     0.0000     0.0000     0.0000     0.0000     0.0000     0.0000 </r>
      <r>    16.6948     0.0000     0.0000     0.0000     0.0000     0.0000     0.0000 </r>
      <r>    16.7656     0.0000     0.0000     0.0000     0.0000     0.0000     0.0000 </r>
      <r>    16.8363     0.0000     0.0000     0.0000     0.0000     0.0000     0.0000 </r>
      <r>    16.9070     0.0000     0.0000     0.0000     0.0000     0.0000     0.0000 </r>
      <r>    16.9778     0.0000     0.0000     0.0000     0.0000     0.0000     0.0000 </r>
      <r>    17.0485     0.0000     0.0000     0.0000     0.0000     0.0000     0.0000 </r>
      <r>    17.1193     0.0000     0.0000     0.0000     0.0000     0.0000     0.0000 </r>
      <r>    17.1900     0.0000     0.0000     0.0000     0.0000     0.0000     0.0000 </r>
      <r>    17.2608     0.0000     0.0000     0.0000     0.0000     0.0000     0.0000 </r>
      <r>    17.3315     0.0000     0.0000     0.0000     0.0000     0.0000     0.0000 </r>
      <r>    17.4022     0.0000     0.0000     0.0000     0.0000     0.0000     0.0000 </r>
      <r>    17.4730     0.0000     0.0000     0.0000     0.0000     0.0000     0.0000 </r>
      <r>    17.5437     0.0000     0.0000     0.0000     0.0000     0.0000     0.0000 </r>
      <r>    17.6145     0.0000     0.0000     0.0000     0.0000     0.0000     0.0000 </r>
      <r>    17.6852     0.0000     0.0000     0.0000     0.0000     0.0000     0.0000 </r>
      <r>    17.7559     0.0000     0.0000     0.0000     0.0000     0.0000     0.0000 </r>
      <r>    17.8267     0.0000     0.0000     0.0000     0.0000     0.0000     0.0000 </r>
      <r>    17.8974     0.0000     0.0000     0.0000     0.0000     0.0000     0.0000 </r>
      <r>    17.9682     0.0000     0.0000     0.0000     0.0000     0.0000     0.0000 </r>
      <r>    18.0389     0.0000     0.0000     0.0000     0.0000     0.0000     0.0000 </r>
      <r>    18.1096     0.0000     0.0000     0.0000     0.0000     0.0000     0.0000 </r>
      <r>    18.1804     0.0000     0.0000     0.0000     0.0000     0.0000     0.0000 </r>
      <r>    18.2511     0.0000     0.0000     0.0000     0.0000     0.0000     0.0000 </r>
      <r>    18.3219     0.0000     0.0000     0.0000     0.0000     0.0000     0.0000 </r>
      <r>    18.3926     0.0000     0.0000     0.0000     0.0000     0.0000     0.0000 </r>
      <r>    18.4633     0.0000     0.0000     0.0000     0.0000     0.0000     0.0000 </r>
      <r>    18.5341     0.0000     0.0000     0.0000     0.0000     0.0000     0.0000 </r>
      <r>    18.6048     0.0000     0.0000     0.0000     0.0000     0.0000     0.0000 </r>
      <r>    18.6756     0.0000     0.0000     0.0000     0.0000     0.0000     0.0000 </r>
      <r>    18.7463     0.0000     0.0000     0.0000     0.0000     0.0000     0.0000 </r>
      <r>    18.8170     0.0000     0.0000     0.0000     0.0000     0.0000     0.0000 </r>
      <r>    18.8878     0.0000     0.0000     0.0000     0.0000     0.0000     0.0000 </r>
      <r>    18.9585     0.0000     0.0000     0.0000     0.0000     0.0000     0.0000 </r>
      <r>    19.0293     0.0000     0.0000     0.0000     0.0000     0.0000     0.0000 </r>
      <r>    19.1000     0.0000     0.0000     0.0000     0.0000     0.0000     0.0000 </r>
      <r>    19.1708     0.0000     0.0000     0.0000     0.0000     0.0000     0.0000 </r>
      <r>    19.2415     0.0000     0.0000     0.0000     0.0000     0.0000     0.0000 </r>
      <r>    19.3122     0.0000     0.0000     0.0000     0.0000     0.0000     0.0000 </r>
      <r>    19.3830     0.0000     0.0000     0.0000     0.0000     0.0000     0.0000 </r>
      <r>    19.4537     0.0000     0.0000     0.0000     0.0000     0.0000     0.0000 </r>
      <r>    19.5245     0.0000     0.0000     0.0000     0.0000     0.0000     0.0000 </r>
      <r>    19.5952     0.0000     0.0000     0.0000     0.0000     0.0000     0.0000 </r>
      <r>    19.6659     0.0000     0.0000     0.0000     0.0000     0.0000     0.0000 </r>
      <r>    19.7367     0.0000     0.0000     0.0000     0.0000     0.0000     0.0000 </r>
      <r>    19.8074     0.0000     0.0000     0.0000     0.0000     0.0000     0.0000 </r>
      <r>    19.8782     0.0000     0.0000     0.0000     0.0000     0.0000     0.0000 </r>
      <r>    19.9489     0.0000     0.0000     0.0000     0.0000     0.0000     0.0000 </r>
      <r>    20.0196     0.0000     0.0000     0.0000     0.0000     0.0000     0.0000 </r>
      <r>    20.0904     0.0000     0.0000     0.0000     0.0000     0.0000     0.0000 </r>
      <r>    20.1611     0.0000     0.0000     0.0000     0.0000     0.0000     0.0000 </r>
      <r>    20.2319     0.0000     0.0000     0.0000     0.0000     0.0000     0.0000 </r>
      <r>    20.3026     0.0000     0.0000     0.0000     0.0000     0.0000     0.0000 </r>
      <r>    20.3733     0.0000     0.0000     0.0000     0.0000     0.0000     0.0000 </r>
      <r>    20.4441     0.0000     0.0000     0.0000     0.0000     0.0000     0.0000 </r>
      <r>    20.5148     0.0000     0.0000     0.0000     0.0000     0.0000     0.0000 </r>
      <r>    20.5856     0.0000     0.0000     0.0000     0.0000     0.0000     0.0000 </r>
      <r>    20.6563     0.0000     0.0000     0.0000     0.0000     0.0000     0.0000 </r>
      <r>    20.7270     0.0000     0.0000     0.0000     0.0000     0.0000     0.0000 </r>
      <r>    20.7978     0.0000     0.0000     0.0000     0.0000     0.0000     0.0000 </r>
      <r>    20.8685     0.0000     0.0000     0.0000     0.0000     0.0000     0.0000 </r>
      <r>    20.9393     0.0000     0.0000     0.0000     0.0000     0.0000     0.0000 </r>
      <r>    21.0100     0.0000     0.0000     0.0000     0.0000     0.0000     0.0000 </r>
      <r>    21.0808     0.0000     0.0000     0.0000     0.0000     0.0000     0.0000 </r>
      <r>    21.1515     0.0000     0.0000     0.0000     0.0000     0.0000     0.0000 </r>
      <r>    21.2222     0.0000     0.0000     0.0000     0.0000     0.0000     0.0000 </r>
      <r>    21.2930     0.0000     0.0000     0.0000     0.0000     0.0000     0.0000 </r>
      <r>    21.3637     0.0000     0.0000     0.0000     0.0000     0.0000     0.0000 </r>
      <r>    21.4345     0.0000     0.0000     0.0000     0.0000     0.0000     0.0000 </r>
      <r>    21.5052     0.0000     0.0000     0.0000     0.0000     0.0000     0.0000 </r>
      <r>    21.5759     0.0000     0.0000     0.0000     0.0000     0.0000     0.0000 </r>
      <r>    21.6467     0.0000     0.0000     0.0000     0.0000     0.0000     0.0000 </r>
      <r>    21.7174     0.0000     0.0000     0.0000     0.0000     0.0000     0.0000 </r>
      <r>    21.7882     0.0000     0.0000     0.0000     0.0000     0.0000     0.0000 </r>
      <r>    21.8589     0.0000     0.0000     0.0000     0.0000     0.0000     0.0000 </r>
      <r>    21.9296     0.0000     0.0000     0.0000     0.0000     0.0000     0.0000 </r>
      <r>    22.0004     0.0000     0.0000     0.0000     0.0000     0.0000     0.0000 </r>
      <r>    22.0711     0.0000     0.0000     0.0000     0.0000     0.0000     0.0000 </r>
      <r>    22.1419     0.0000     0.0000     0.0000     0.0000     0.0000     0.0000 </r>
      <r>    22.2126     0.0000     0.0000     0.0000     0.0000     0.0000     0.0000 </r>
      <r>    22.2833     0.0000     0.0000     0.0000     0.0000     0.0000     0.0000 </r>
      <r>    22.3541     0.0000     0.0000     0.0000     0.0000     0.0000     0.0000 </r>
      <r>    22.4248     0.0000     0.0000     0.0000     0.0000     0.0000     0.0000 </r>
      <r>    22.4956     0.0000     0.0000     0.0000     0.0000     0.0000     0.0000 </r>
      <r>    22.5663     0.0000     0.0000     0.0000     0.0000     0.0000     0.0000 </r>
      <r>    22.6371     0.0000     0.0000     0.0000     0.0000     0.0000     0.0000 </r>
      <r>    22.7078     0.0000     0.0000     0.0000     0.0000     0.0000     0.0000 </r>
      <r>    22.7785     0.0000     0.0000     0.0000     0.0000     0.0000     0.0000 </r>
      <r>    22.8493     0.0000     0.0000     0.0000     0.0000     0.0000     0.0000 </r>
      <r>    22.9200     0.0000     0.0000     0.0000     0.0000     0.0000     0.0000 </r>
      <r>    22.9908     0.0000     0.0000     0.0000     0.0000     0.0000     0.0000 </r>
      <r>    23.0615     0.0000     0.0000     0.0000     0.0000     0.0000     0.0000 </r>
      <r>    23.1322     0.0000     0.0000     0.0000     0.0000     0.0000     0.0000 </r>
      <r>    23.2030     0.0000     0.0000     0.0000     0.0000     0.0000     0.0000 </r>
      <r>    23.2737     0.0000     0.0000     0.0000     0.0000     0.0000     0.0000 </r>
      <r>    23.3445     0.0000     0.0000     0.0000     0.0000     0.0000     0.0000 </r>
      <r>    23.4152     0.0000     0.0000     0.0000     0.0000     0.0000     0.0000 </r>
      <r>    23.4859     0.0000     0.0000     0.0000     0.0000     0.0000     0.0000 </r>
      <r>    23.5567     0.0000     0.0000     0.0000     0.0000     0.0000     0.0000 </r>
      <r>    23.6274     0.0000     0.0000     0.0000     0.0000     0.0000     0.0000 </r>
      <r>    23.6982     0.0000     0.0000     0.0000     0.0000     0.0000     0.0000 </r>
      <r>    23.7689     0.0000     0.0000     0.0000     0.0000     0.0000     0.0000 </r>
      <r>    23.8396     0.0000     0.0000     0.0000     0.0000     0.0000     0.0000 </r>
      <r>    23.9104     0.0000     0.0000     0.0000     0.0000     0.0000     0.0000 </r>
      <r>    23.9811     0.0000     0.0000     0.0000     0.0000     0.0000     0.0000 </r>
      <r>    24.0519     0.0000     0.0000     0.0000     0.0000     0.0000     0.0000 </r>
      <r>    24.1226     0.0000     0.0000     0.0000     0.0000     0.0000     0.0000 </r>
      <r>    24.1933     0.0000     0.0000     0.0000     0.0000     0.0000     0.0000 </r>
      <r>    24.2641     0.0000     0.0000     0.0000     0.0000     0.0000     0.0000 </r>
      <r>    24.3348     0.0000     0.0000     0.0000     0.0000     0.0000     0.0000 </r>
      <r>    24.4056     0.0000     0.0000     0.0000     0.0000     0.0000     0.0000 </r>
      <r>    24.4763     0.0000     0.0000     0.0000     0.0000     0.0000     0.0000 </r>
      <r>    24.5471     0.0000     0.0000     0.0000     0.0000     0.0000     0.0000 </r>
      <r>    24.6178     0.0000     0.0000     0.0000     0.0000     0.0000     0.0000 </r>
      <r>    24.6885     0.0000     0.0000     0.0000     0.0000     0.0000     0.0000 </r>
      <r>    24.7593     0.0000     0.0000     0.0000     0.0000     0.0000     0.0000 </r>
      <r>    24.8300     0.0000     0.0000     0.0000     0.0000     0.0000     0.0000 </r>
      <r>    24.9008     0.0000     0.0000     0.0000     0.0000     0.0000     0.0000 </r>
      <r>    24.9715     0.0000     0.0000     0.0000     0.0000     0.0000     0.0000 </r>
      <r>    25.0422     0.0000     0.0000     0.0000     0.0000     0.0000     0.0000 </r>
      <r>    25.1130     0.0000     0.0000     0.0000     0.0000     0.0000     0.0000 </r>
      <r>    25.1837     0.0000     0.0000     0.0000     0.0000     0.0000     0.0000 </r>
      <r>    25.2545     0.0000     0.0000     0.0000     0.0000     0.0000     0.0000 </r>
      <r>    25.3252     0.0000     0.0000     0.0000     0.0000     0.0000     0.0000 </r>
      <r>    25.3959     0.0000     0.0000     0.0000     0.0000     0.0000     0.0000 </r>
      <r>    25.4667     0.0000     0.0000     0.0000     0.0000     0.0000     0.0000 </r>
      <r>    25.5374     0.0000     0.0000     0.0000     0.0000     0.0000     0.0000 </r>
      <r>    25.6082     0.0000     0.0000     0.0000     0.0000     0.0000     0.0000 </r>
      <r>    25.6789     0.0000     0.0000     0.0000     0.0000     0.0000     0.0000 </r>
      <r>    25.7496     0.0000     0.0000     0.0000     0.0000     0.0000     0.0000 </r>
      <r>    25.8204     0.0000     0.0000     0.0000     0.0000     0.0000     0.0000 </r>
      <r>    25.8911     0.0000     0.0000     0.0000     0.0000     0.0000     0.0000 </r>
      <r>    25.9619     0.0000     0.0000     0.0000     0.0000     0.0000     0.0000 </r>
      <r>    26.0326     0.0000     0.0000     0.0000     0.0000     0.0000     0.0000 </r>
      <r>    26.1033     0.0000     0.0000     0.0000     0.0000     0.0000     0.0000 </r>
      <r>    26.1741     0.0000     0.0000     0.0000     0.0000     0.0000     0.0000 </r>
      <r>    26.2448     0.0000     0.0000     0.0000     0.0000     0.0000     0.0000 </r>
      <r>    26.3156     0.0000     0.0000     0.0000     0.0000     0.0000     0.0000 </r>
      <r>    26.3863     0.0000     0.0000     0.0000     0.0000     0.0000     0.0000 </r>
      <r>    26.4571     0.0000     0.0000     0.0000     0.0000     0.0000     0.0000 </r>
      <r>    26.5278     0.0000     0.0000     0.0000     0.0000     0.0000     0.0000 </r>
      <r>    26.5985     0.0000     0.0000     0.0000     0.0000     0.0000     0.0000 </r>
      <r>    26.6693     0.0000     0.0000     0.0000     0.0000     0.0000     0.0000 </r>
      <r>    26.7400     0.0000     0.0000     0.0000     0.0000     0.0000     0.0000 </r>
      <r>    26.8108     0.0000     0.0000     0.0000     0.0000     0.0000     0.0000 </r>
      <r>    26.8815     0.0000     0.0000     0.0000     0.0000     0.0000     0.0000 </r>
      <r>    26.9522     0.0000     0.0000     0.0000     0.0000     0.0000     0.0000 </r>
      <r>    27.0230     0.0000     0.0000     0.0000     0.0000     0.0000     0.0000 </r>
      <r>    27.0937     0.0000     0.0000     0.0000     0.0000     0.0000     0.0000 </r>
      <r>    27.1645     0.0000     0.0000     0.0000     0.0000     0.0000     0.0000 </r>
      <r>    27.2352     0.0000     0.0000     0.0000     0.0000     0.0000     0.0000 </r>
      <r>    27.3059     0.0000     0.0000     0.0000     0.0000     0.0000     0.0000 </r>
      <r>    27.3767     0.0000     0.0000     0.0000     0.0000     0.0000     0.0000 </r>
      <r>    27.4474     0.0000     0.0000     0.0000     0.0000     0.0000     0.0000 </r>
      <r>    27.5182     0.0000     0.0000     0.0000     0.0000     0.0000     0.0000 </r>
      <r>    27.5889     0.0000     0.0000     0.0000     0.0000     0.0000     0.0000 </r>
      <r>    27.6596     0.0000     0.0000     0.0000     0.0000     0.0000     0.0000 </r>
      <r>    27.7304     0.0000     0.0000     0.0000     0.0000     0.0000     0.0000 </r>
      <r>    27.8011     0.0000     0.0000     0.0000     0.0000     0.0000     0.0000 </r>
      <r>    27.8719     0.0000     0.0000     0.0000     0.0000     0.0000     0.0000 </r>
      <r>    27.9426     0.0000     0.0000     0.0000     0.0000     0.0000     0.0000 </r>
      <r>    28.0134     0.0000     0.0000     0.0000     0.0000     0.0000     0.0000 </r>
      <r>    28.0841     0.0000     0.0000     0.0000     0.0000     0.0000     0.0000 </r>
      <r>    28.1548     0.0000     0.0000     0.0000     0.0000     0.0000     0.0000 </r>
      <r>    28.2256     0.0000     0.0000     0.0000     0.0000     0.0000     0.0000 </r>
      <r>    28.2963     0.0000     0.0000     0.0000     0.0000     0.0000     0.0000 </r>
      <r>    28.3671     0.0000     0.0000     0.0000     0.0000     0.0000     0.0000 </r>
      <r>    28.4378     0.0000     0.0000     0.0000     0.0000     0.0000     0.0000 </r>
      <r>    28.5085     0.0000     0.0000     0.0000     0.0000     0.0000     0.0000 </r>
      <r>    28.5793     0.0000     0.0000     0.0000     0.0000     0.0000     0.0000 </r>
      <r>    28.6500     0.0000     0.0000     0.0000     0.0000     0.0000     0.0000 </r>
      <r>    28.7208     0.0000     0.0000     0.0000     0.0000     0.0000     0.0000 </r>
      <r>    28.7915     0.0000     0.0000     0.0000     0.0000     0.0000     0.0000 </r>
      <r>    28.8622     0.0000     0.0000     0.0000     0.0000     0.0000     0.0000 </r>
      <r>    28.9330     0.0000     0.0000     0.0000     0.0000     0.0000     0.0000 </r>
      <r>    29.0037     0.0000     0.0000     0.0000     0.0000     0.0000     0.0000 </r>
      <r>    29.0745     0.0000     0.0000     0.0000     0.0000     0.0000     0.0000 </r>
      <r>    29.1452     0.0000     0.0000     0.0000     0.0000     0.0000     0.0000 </r>
      <r>    29.2159     0.0000     0.0000     0.0000     0.0000     0.0000     0.0000 </r>
      <r>    29.2867     0.0000     0.0000     0.0000     0.0000     0.0000     0.0000 </r>
      <r>    29.3574     0.0000     0.0000     0.0000     0.0000     0.0000     0.0000 </r>
      <r>    29.4282     0.0000     0.0000     0.0000     0.0000     0.0000     0.0000 </r>
      <r>    29.4989     0.0000     0.0000     0.0000     0.0000     0.0000     0.0000 </r>
      <r>    29.5696     0.0000     0.0000     0.0000     0.0000     0.0000     0.0000 </r>
      <r>    29.6404     0.0000     0.0000     0.0000     0.0000     0.0000     0.0000 </r>
      <r>    29.7111     0.0000     0.0000     0.0000     0.0000     0.0000     0.0000 </r>
      <r>    29.7819     0.0000     0.0000     0.0000     0.0000     0.0000     0.0000 </r>
      <r>    29.8526     0.0000     0.0000     0.0000     0.0000     0.0000     0.0000 </r>
      <r>    29.9234     0.0000     0.0000     0.0000     0.0000     0.0000     0.0000 </r>
      <r>    29.9941     0.0000     0.0000     0.0000     0.0000     0.0000     0.0000 </r>
      <r>    30.0648     0.0000     0.0000     0.0000     0.0000     0.0000     0.0000 </r>
      <r>    30.1356     0.0000     0.0000     0.0000     0.0000     0.0000     0.0000 </r>
      <r>    30.2063     0.0000     0.0000     0.0000     0.0000     0.0000     0.0000 </r>
      <r>    30.2771     0.0000     0.0000     0.0000     0.0000     0.0000     0.0000 </r>
      <r>    30.3478     0.0000     0.0000     0.0000     0.0000     0.0000     0.0000 </r>
      <r>    30.4185     0.0000     0.0000     0.0000     0.0000     0.0000     0.0000 </r>
      <r>    30.4893     0.0000     0.0000     0.0000     0.0000     0.0000     0.0000 </r>
      <r>    30.5600     0.0000     0.0000     0.0000     0.0000     0.0000     0.0000 </r>
      <r>    30.6308     0.0000     0.0000     0.0000     0.0000     0.0000     0.0000 </r>
      <r>    30.7015     0.0000     0.0000     0.0000     0.0000     0.0000     0.0000 </r>
      <r>    30.7722     0.0000     0.0000     0.0000     0.0000     0.0000     0.0000 </r>
      <r>    30.8430     0.0000     0.0000     0.0000     0.0000     0.0000     0.0000 </r>
      <r>    30.9137     0.0000     0.0000     0.0000     0.0000     0.0000     0.0000 </r>
      <r>    30.9845     0.0000     0.0000     0.0000     0.0000     0.0000     0.0000 </r>
      <r>    31.0552     0.0000     0.0000     0.0000     0.0000     0.0000     0.0000 </r>
      <r>    31.1259     0.0000     0.0000     0.0000     0.0000     0.0000     0.0000 </r>
      <r>    31.1967     0.0000     0.0000     0.0000     0.0000     0.0000     0.0000 </r>
      <r>    31.2674     0.0000     0.0000     0.0000     0.0000     0.0000     0.0000 </r>
      <r>    31.3382     0.0000     0.0000     0.0000     0.0000     0.0000     0.0000 </r>
      <r>    31.4089     0.0000     0.0000     0.0000     0.0000     0.0000     0.0000 </r>
      <r>    31.4796     0.0000     0.0000     0.0000     0.0000     0.0000     0.0000 </r>
      <r>    31.5504     0.0000     0.0000     0.0000     0.0000     0.0000     0.0000 </r>
      <r>    31.6211     0.0000     0.0000     0.0000     0.0000     0.0000     0.0000 </r>
      <r>    31.6919     0.0000     0.0000     0.0000     0.0000     0.0000     0.0000 </r>
[...]
     <r>     8.8836     0.0000     0.0000     0.0000     0.0000     0.0000     0.0000 </r>
     <r>     8.8936     0.0000     0.0000     0.0000     0.0000     0.0000     0.0000 </r>
     <r>     8.9036     0.0000     0.0000     0.0000     0.0000     0.0000     0.0000 </r>
     <r>     8.9136     0.0000     0.0000     0.0000     0.0000     0.0000     0.0000 </r>
     <r>     8.9236     0.0000     0.0000     0.0000     0.0000     0.0000     0.0000 </r>
     <r>     8.9336     0.0000     0.0000     0.0000     0.0000     0.0000     0.0000 </r>
     <r>     8.9437     0.0000     0.0000     0.0000     0.0000     0.0000     0.0000 </r>
     <r>     8.9537     0.0000     0.0000     0.0000     0.0000     0.0000     0.0000 </r>
     <r>     8.9637     0.0000     0.0000     0.0000     0.0000     0.0000     0.0000 </r>
     <r>     8.9737     0.0000     0.0000     0.0000     0.0000     0.0000     0.0000 </r>
     <r>     8.9837     0.0000     0.0000     0.0000     0.0000     0.0000     0.0000 </r>
     <r>     8.9937     0.0000     0.0000     0.0000     0.0000     0.0000     0.0000 </r>
     <r>     9.0037     0.0000     0.0000     0.0000     0.0000     0.0000     0.0000 </r>
     <r>     9.0137     0.0000     0.0000     0.0000     0.0000     0.0000     0.0000 </r>
     <r>     9.0237     0.0000     0.0000     0.0000     0.0000     0.0000     0.0000 </r>
     <r>     9.0337     0.0000     0.0000     0.0000     0.0000     0.0000     0.0000 </r>
     <r>     9.0438     0.0000     0.0000     0.0000     0.0000     0.0000     0.0000 </r>
     <r>     9.0538     0.0000     0.0000     0.0000     0.0000     0.0000     0.0000 </r>
     <r>     9.0638     0.0000     0.0000     0.0000     0.0000     0.0000     0.0000 </r>
     <r>     9.0738     0.0000     0.0000     0.0000     0.0000     0.0000     0.0000 </r>
     <r>     9.0838     0.0000     0.0000     0.0000     0.0000     0.0000     0.0000 </r>
     <r>     9.0938     0.0000     0.0000     0.0000     0.0000     0.0000     0.0000 </r>
     <r>     9.1038     0.0000     0.0000     0.0000     0.0000     0.0000     0.0000 </r>
     <r>     9.1138     0.0000     0.0000     0.0000     0.0000     0.0000     0.0000 </r>
     <r>     9.1238     0.0000     0.0000     0.0000     0.0000     0.0000     0.0000 </r>
     <r>     9.1338     0.0000     0.0000     0.0000     0.0000     0.0000     0.0000 </r>
     <r>     9.1439     0.0000     0.0000     0.0000     0.0000     0.0000     0.0000 </r>
     <r>     9.1539     0.0000     0.0000     0.0000     0.0000     0.0000     0.0000 </r>
     <r>     9.1639     0.0000     0.0000     0.0000     0.0000     0.0000     0.0000 </r>
     <r>     9.1739     0.0000     0.0000     0.0000     0.0000     0.0000     0.0000 </r>
     <r>     9.1839     0.0000     0.0000     0.0000     0.0000     0.0000     0.0000 </r>
     <r>     9.1939     0.0000     0.0000     0.0000     0.0000     0.0000     0.0000 </r>
     <r>     9.2039     0.0000     0.0000     0.0000     0.0000     0.0000     0.0000 </r>
     <r>     9.2139     0.0000     0.0000     0.0000     0.0000     0.0000     0.0000 </r>
     <r>     9.2239     0.0000     0.0000     0.0000     0.0000     0.0000     0.0000 </r>
     <r>     9.2339     0.0000     0.0000     0.0000     0.0000     0.0000     0.0000 </r>
     <r>     9.2440     0.0000     0.0000     0.0000     0.0000     0.0000     0.0000 </r>
     <r>     9.2540     0.0000     0.0000     0.0000     0.0000     0.0000     0.0000 </r>
    </set>
   </array>
  </conductivity>
  <dos>
   <i name="efermi">      4.25396586 </i>
   <total>
    <array>
     <dimension dim="1">gridpoints</dimension>
     <dimension dim="2">spin</dimension>
     <field>energy</field>
     <field>total</field>
     <field>integrated</field>
     <set>
      <set comment="spin 1">
       <r>   -53.7987     0.0000     0.0000 </r>
       <r>   -53.5828     0.0000     0.0000 </r>
       <r>   -53.3668     0.0000     0.0000 </r>
       <r>   -53.1509     0.0000     0.0000 </r>
       <r>   -52.9349     0.0000     0.0000 </r>
       <r>   -52.7190     0.0000     0.0000 </r>
       <r>   -52.5031    -0.0000    -0.0000 </r>
       <r>   -52.2871    -0.0000    -0.0000 </r>
       <r>   -52.0712    -0.0000    -0.0000 </r>
       <r>   -51.8553    -0.0000    -0.0000 </r>
       <r>   -51.6393    -0.0000    -0.0000 </r>
       <r>   -51.4234    -0.0051    -0.0011 </r>
       <r>   -51.2075    -0.4599    -0.1004 </r>
       <r>   -50.9915     1.1277     0.1431 </r>
       <r>   -50.7756    27.0054     5.9745 </r>
       <r>   -50.5596    10.5716     8.2573 </r>
       <r>   -50.3437    -1.1417     8.0108 </r>
       <r>   -50.1278    -0.0499     8.0000 </r>
       <r>   -49.9118    -0.0001     8.0000 </r>
       <r>   -49.6959    -0.0000     8.0000 </r>
       <r>   -49.4800    -0.0000     8.0000 </r>
       <r>   -49.2640     0.0000     8.0000 </r>
       <r>   -49.0481     0.0000     8.0000 </r>
       <r>   -48.8322     0.0000     8.0000 </r>
       <r>   -48.6162     0.0000     8.0000 </r>
       <r>   -48.4003     0.0000     8.0000 </r>
       <r>   -48.1843     0.0000     8.0000 </r>
       <r>   -47.9684     0.0000     8.0000 </r>
       <r>   -47.7525     0.0000     8.0000 </r>
       <r>   -47.5365     0.0000     8.0000 </r>
       <r>   -47.3206     0.0000     8.0000 </r>
       <r>   -47.1047     0.0000     8.0000 </r>
       <r>   -46.8887     0.0000     8.0000 </r>
       <r>   -46.6728     0.0000     8.0000 </r>
       <r>   -46.4569     0.0000     8.0000 </r>
       <r>   -46.2409     0.0000     8.0000 </r>
       <r>   -46.0250     0.0000     8.0000 </r>
       <r>   -45.8090     0.0000     8.0000 </r>
       <r>   -45.5931     0.0000     8.0000 </r>
       <r>   -45.3772     0.0000     8.0000 </r>
       <r>   -45.1612     0.0000     8.0000 </r>
       <r>   -44.9453     0.0000     8.0000 </r>
       <r>   -44.7294     0.0000     8.0000 </r>
       <r>   -44.5134     0.0000     8.0000 </r>
       <r>   -44.2975     0.0000     8.0000 </r>
       <r>   -44.0816     0.0000     8.0000 </r>
       <r>   -43.8656     0.0000     8.0000 </r>
       <r>   -43.6497     0.0000     8.0000 </r>
       <r>   -43.4337     0.0000     8.0000 </r>
       <r>   -43.2178     0.0000     8.0000 </r>
       <r>   -43.0019     0.0000     8.0000 </r>
       <r>   -42.7859     0.0000     8.0000 </r>
       <r>   -42.5700     0.0000     8.0000 </r>
       <r>   -42.3541     0.0000     8.0000 </r>
       <r>   -42.1381     0.0000     8.0000 </r>
       <r>   -41.9222     0.0000     8.0000 </r>
       <r>   -41.7063     0.0000     8.0000 </r>
       <r>   -41.4903     0.0000     8.0000 </r>
       <r>   -41.2744     0.0000     8.0000 </r>
       <r>   -41.0584     0.0000     8.0000 </r>
       <r>   -40.8425     0.0000     8.0000 </r>
       <r>   -40.6266     0.0000     8.0000 </r>
       <r>   -40.4106     0.0000     8.0000 </r>
       <r>   -40.1947     0.0000     8.0000 </r>
       <r>   -39.9788     0.0000     8.0000 </r>
       <r>   -39.7628     0.0000     8.0000 </r>
       <r>   -39.5469     0.0000     8.0000 </r>
       <r>   -39.3310     0.0000     8.0000 </r>
       <r>   -39.1150     0.0000     8.0000 </r>
       <r>   -38.8991     0.0000     8.0000 </r>
       <r>   -38.6832     0.0000     8.0000 </r>
       <r>   -38.4672     0.0000     8.0000 </r>
       <r>   -38.2513     0.0000     8.0000 </r>
       <r>   -38.0353     0.0000     8.0000 </r>
       <r>   -37.8194     0.0000     8.0000 </r>
       <r>   -37.6035     0.0000     8.0000 </r>
       <r>   -37.3875     0.0000     8.0000 </r>
       <r>   -37.1716     0.0000     8.0000 </r>
       <r>   -36.9557     0.0000     8.0000 </r>
       <r>   -36.7397     0.0000     8.0000 </r>
       <r>   -36.5238     0.0000     8.0000 </r>
       <r>   -36.3079     0.0000     8.0000 </r>
       <r>   -36.0919     0.0000     8.0000 </r>
       <r>   -35.8760     0.0000     8.0000 </r>
       <r>   -35.6600     0.0000     8.0000 </r>
       <r>   -35.4441     0.0000     8.0000 </r>
       <r>   -35.2282     0.0000     8.0000 </r>
       <r>   -35.0122     0.0000     8.0000 </r>
       <r>   -34.7963     0.0000     8.0000 </r>
       <r>   -34.5804     0.0000     8.0000 </r>
       <r>   -34.3644     0.0000     8.0000 </r>
       <r>   -34.1485     0.0000     8.0000 </r>
       <r>   -33.9326     0.0000     8.0000 </r>
       <r>   -33.7166     0.0000     8.0000 </r>
       <r>   -33.5007     0.0000     8.0000 </r>
       <r>   -33.2847     0.0000     8.0000 </r>
       <r>   -33.0688     0.0000     8.0000 </r>
       <r>   -32.8529     0.0000     8.0000 </r>
       <r>   -32.6369     0.0000     8.0000 </r>
       <r>   -32.4210     0.0000     8.0000 </r>
       <r>   -32.2051     0.0000     8.0000 </r>
       <r>   -31.9891     0.0000     8.0000 </r>
       <r>   -31.7732     0.0000     8.0000 </r>
       <r>   -31.5573     0.0000     8.0000 </r>
       <r>   -31.3413     0.0000     8.0000 </r>
       <r>   -31.1254     0.0000     8.0000 </r>
       <r>   -30.9094     0.0000     8.0000 </r>
       <r>   -30.6935     0.0000     8.0000 </r>
       <r>   -30.4776     0.0000     8.0000 </r>
       <r>   -30.2616     0.0000     8.0000 </r>
       <r>   -30.0457     0.0000     8.0000 </r>
       <r>   -29.8298     0.0000     8.0000 </r>
       <r>   -29.6138     0.0000     8.0000 </r>
       <r>   -29.3979     0.0000     8.0000 </r>
       <r>   -29.1820     0.0000     8.0000 </r>
       <r>   -28.9660     0.0000     8.0000 </r>
       <r>   -28.7501    -0.0000     8.0000 </r>
       <r>   -28.5341    -0.0000     8.0000 </r>
       <r>   -28.3182    -0.0000     8.0000 </r>
       <r>   -28.1023    -0.0000     8.0000 </r>
       <r>   -27.8863    -0.0000     8.0000 </r>
       <r>   -27.6704    -0.0007     7.9999 </r>
       <r>   -27.4545    -0.1423     7.9691 </r>
       <r>   -27.2385    -2.0842     7.5191 </r>
       <r>   -27.0226    19.9528    11.8276 </r>
       <r>   -26.8067    77.8858    28.6460 </r>
       <r>   -26.5907    18.0103    32.5351 </r>
       <r>   -26.3748    -2.3922    32.0185 </r>
       <r>   -26.1588    -0.0854    32.0000 </r>
       <r>   -25.9429    -0.0002    32.0000 </r>
       <r>   -25.7270    -0.0000    32.0000 </r>
       <r>   -25.5110    -0.0000    32.0000 </r>
       <r>   -25.2951     0.0000    32.0000 </r>
       <r>   -25.0792     0.0000    32.0000 </r>
       <r>   -24.8632     0.0000    32.0000 </r>
       <r>   -24.6473     0.0000    32.0000 </r>
       <r>   -24.4314     0.0000    32.0000 </r>
       <r>   -24.2154     0.0000    32.0000 </r>
       <r>   -23.9995     0.0000    32.0000 </r>
       <r>   -23.7836     0.0000    32.0000 </r>
       <r>   -23.5676     0.0000    32.0000 </r>
       <r>   -23.3517     0.0000    32.0000 </r>
       <r>   -23.1357     0.0000    32.0000 </r>
       <r>   -22.9198     0.0000    32.0000 </r>
       <r>   -22.7039     0.0000    32.0000 </r>
       <r>   -22.4879     0.0000    32.0000 </r>
       <r>   -22.2720     0.0000    32.0000 </r>
       <r>   -22.0561     0.0000    32.0000 </r>
       <r>   -21.8401     0.0000    32.0000 </r>
       <r>   -21.6242     0.0000    32.0000 </r>
       <r>   -21.4083     0.0000    32.0000 </r>
       <r>   -21.1923     0.0000    32.0000 </r>
       <r>   -20.9764     0.0000    32.0000 </r>
       <r>   -20.7604     0.0000    32.0000 </r>
       <r>   -20.5445     0.0000    32.0000 </r>
       <r>   -20.3286     0.0000    32.0000 </r>
       <r>   -20.1126     0.0000    32.0000 </r>
       <r>   -19.8967     0.0000    32.0000 </r>
       <r>   -19.6808     0.0000    32.0000 </r>
       <r>   -19.4648     0.0000    32.0000 </r>
       <r>   -19.2489     0.0000    32.0000 </r>
       <r>   -19.0330     0.0000    32.0000 </r>
       <r>   -18.8170     0.0000    32.0000 </r>
       <r>   -18.6011     0.0000    32.0000 </r>
       <r>   -18.3851     0.0000    32.0000 </r>
       <r>   -18.1692     0.0000    32.0000 </r>
       <r>   -17.9533     0.0000    32.0000 </r>
       <r>   -17.7373     0.0000    32.0000 </r>
       <r>   -17.5214     0.0000    32.0000 </r>
       <r>   -17.3055     0.0000    32.0000 </r>
       <r>   -17.0895     0.0000    32.0000 </r>
       <r>   -16.8736     0.0000    32.0000 </r>
       <r>   -16.6577     0.0000    32.0000 </r>
       <r>   -16.4417     0.0000    32.0000 </r>
       <r>   -16.2258     0.0000    32.0000 </r>
       <r>   -16.0098     0.0000    32.0000 </r>
       <r>   -15.7939     0.0000    32.0000 </r>
       <r>   -15.5780     0.0000    32.0000 </r>
       <r>   -15.3620     0.0000    32.0000 </r>
       <r>   -15.1461     0.0000    32.0000 </r>
       <r>   -14.9302     0.0000    32.0000 </r>
       <r>   -14.7142     0.0000    32.0000 </r>
       <r>   -14.4983     0.0000    32.0000 </r>
       <r>   -14.2824     0.0000    32.0000 </r>
       <r>   -14.0664     0.0000    32.0000 </r>
       <r>   -13.8505     0.0000    32.0000 </r>
       <r>   -13.6345     0.0000    32.0000 </r>
       <r>   -13.4186     0.0000    32.0000 </r>
       <r>   -13.2027     0.0000    32.0000 </r>
       <r>   -12.9867     0.0000    32.0000 </r>
       <r>   -12.7708     0.0000    32.0000 </r>
       <r>   -12.5549     0.0000    32.0000 </r>
       <r>   -12.3389     0.0000    32.0000 </r>
       <r>   -12.1230     0.0000    32.0000 </r>
       <r>   -11.9071     0.0000    32.0000 </r>
       <r>   -11.6911     0.0000    32.0000 </r>
       <r>   -11.4752     0.0000    32.0000 </r>
       <r>   -11.2592     0.0000    32.0000 </r>
       <r>   -11.0433    -0.0000    32.0000 </r>
       <r>   -10.8274    -0.0000    32.0000 </r>
       <r>   -10.6114    -0.0000    32.0000 </r>
       <r>   -10.3955    -0.0000    32.0000 </r>
       <r>   -10.1796    -0.0000    32.0000 </r>
       <r>    -9.9636    -0.0000    32.0000 </r>
       <r>    -9.7477    -0.0035    31.9992 </r>
       <r>    -9.5318    -0.0435    31.9898 </r>
       <r>    -9.3158     0.4946    32.0967 </r>
       <r>    -9.0999     0.7635    32.2615 </r>
       <r>    -8.8839     4.3072    33.1916 </r>
       <r>    -8.6680     4.9053    34.2508 </r>
       <r>    -8.4521    -0.2417    34.1986 </r>
       <r>    -8.2361     9.3455    36.2167 </r>
       <r>    -8.0202    17.0599    39.9005 </r>
       <r>    -7.8043    20.3019    44.2844 </r>
       <r>    -7.5883    16.5643    47.8613 </r>
       <r>    -7.3724     0.9529    48.0670 </r>
       <r>    -7.1565    -0.3034    48.0015 </r>
       <r>    -6.9405    -0.0070    48.0000 </r>
       <r>    -6.7246    -0.0000    48.0000 </r>
       <r>    -6.5087    -0.0000    48.0000 </r>
       <r>    -6.2927    -0.0000    48.0000 </r>
       <r>    -6.0768     0.0000    48.0000 </r>
       <r>    -5.8608     0.0000    48.0000 </r>
       <r>    -5.6449     0.0000    48.0000 </r>
       <r>    -5.4290     0.0000    48.0000 </r>
       <r>    -5.2130     0.0000    48.0000 </r>
       <r>    -4.9971     0.0000    48.0000 </r>
       <r>    -4.7812     0.0000    48.0000 </r>
       <r>    -4.5652     0.0000    48.0000 </r>
       <r>    -4.3493     0.0000    48.0000 </r>
       <r>    -4.1334     0.0000    48.0000 </r>
       <r>    -3.9174     0.0000    48.0000 </r>
       <r>    -3.7015     0.0000    48.0000 </r>
       <r>    -3.4855     0.0000    48.0000 </r>
       <r>    -3.2696     0.0000    48.0000 </r>
       <r>    -3.0537     0.0000    48.0000 </r>
       <r>    -2.8377     0.0000    48.0000 </r>
       <r>    -2.6218    -0.0000    48.0000 </r>
       <r>    -2.4059    -0.0000    48.0000 </r>
       <r>    -2.1899    -0.0000    48.0000 </r>
       <r>    -1.9740    -0.0000    48.0000 </r>
       <r>    -1.7581    -0.0000    48.0000 </r>
       <r>    -1.5421    -0.0000    48.0000 </r>
       <r>    -1.3262    -0.0003    47.9999 </r>
       <r>    -1.1102    -0.0108    47.9976 </r>
       <r>    -0.8943     0.0379    48.0058 </r>
       <r>    -0.6784     0.0755    48.0221 </r>
       <r>    -0.4624     4.0983    48.9070 </r>
       <r>    -0.2465    10.0912    51.0861 </r>
       <r>    -0.0306    12.4311    53.7704 </r>
       <r>     0.1854    14.8675    56.9809 </r>
       <r>     0.4013     7.7394    58.6521 </r>
       <r>     0.6172     5.1009    59.7535 </r>
       <r>     0.8332    11.9096    62.3253 </r>
       <r>     1.0491    20.2302    66.6937 </r>
       <r>     1.2651     8.2884    68.4834 </r>
       <r>     1.4810     5.0653    69.5772 </r>
       <r>     1.6969     8.9393    71.5075 </r>
       <r>     1.9129    21.6736    76.1877 </r>
       <r>     2.1288    13.2216    79.0427 </r>
       <r>     2.3447     1.4861    79.3636 </r>
       <r>     2.5607    10.1551    81.5564 </r>
       <r>     2.7766    20.2402    85.9270 </r>
       <r>     2.9925    15.0018    89.1665 </r>
       <r>     3.2085     7.3605    90.7559 </r>
       <r>     3.4244    16.9969    94.4261 </r>
       <r>     3.6404     5.9298    95.7066 </r>
       <r>     3.8563     3.3769    96.4358 </r>
       <r>     4.0722     9.9534    98.5851 </r>
       <r>     4.2882     7.5716   100.2200 </r>
       <r>     4.5041    11.0275   102.6013 </r>
       <r>     4.7200     5.7758   103.8485 </r>
       <r>     4.9360    -0.1072   103.8253 </r>
       <r>     5.1519     0.6067   103.9564 </r>
       <r>     5.3678     0.2172   104.0033 </r>
       <r>     5.5838    -0.0128   104.0005 </r>
       <r>     5.7997    -0.0141   103.9974 </r>
       <r>     6.0157    -0.1607   103.9627 </r>
       <r>     6.2316     0.8667   104.1499 </r>
       <r>     6.4475    10.2948   106.3729 </r>
       <r>     6.6635    16.7987   110.0004 </r>
       <r>     6.8794    20.5119   114.4296 </r>
       <r>     7.0953    21.4307   119.0573 </r>
       <r>     7.3113    14.0428   122.0896 </r>
       <r>     7.5272     9.8976   124.2269 </r>
       <r>     7.7431     8.3644   126.0331 </r>
       <r>     7.9591     7.3924   127.6294 </r>
       <r>     8.1750     1.7184   128.0004 </r>
       <r>     8.3909     0.0341   128.0078 </r>
       <r>     8.6069    -0.0356   128.0001 </r>
       <r>     8.8228    -0.0005   128.0000 </r>
       <r>     9.0388    -0.0000   128.0000 </r>
       <r>     9.2547    -0.0000   128.0000 </r>
       <r>     9.4706    -0.0000   128.0000 </r>
       <r>     9.6866     0.0000   128.0000 </r>
       <r>     9.9025     0.0000   128.0000 </r>
       <r>    10.1184     0.0000   128.0000 </r>
       <r>    10.3344     0.0000   128.0000 </r>
       <r>    10.5503     0.0000   128.0000 </r>
       <r>    10.7662     0.0000   128.0000 </r>
       <r>    10.9822     0.0000   128.0000 </r>
      </set>
     </set>
    </array>
   </total>
  </dos>
 </calculation>
 <structure name="finalpos" >
  <crystal>
   <varray name="basis" >
    <v>       1.74658700      -3.02517700       0.00000000 </v>
    <v>       1.74658700       3.02517700       0.00000000 </v>
    <v>       0.00000000       0.00000000      28.21533400 </v>
   </varray>
   <i name="volume">    298.16468548 </i>
   <varray name="rec_basis" >
    <v>       0.28627260      -0.16527959       0.00000000 </v>
    <v>       0.28627260       0.16527959       0.00000000 </v>
    <v>       0.00000000       0.00000000       0.03544172 </v>
   </varray>
  </crystal>
  <varray name="positions" >
   <v>       0.00000000       0.00000000       0.00000000 </v>
   <v>       0.00000000       0.00000000       0.25029100 </v>
   <v>       0.33333300       0.66666700       0.50000000 </v>
   <v>       0.00000000       0.00000000       0.74970900 </v>
   <v>       0.33333300       0.66666700       0.94030500 </v>
   <v>       0.66666700       0.33333300       0.68989900 </v>
   <v>       0.66666700       0.33333300       0.31010100 </v>
   <v>       0.33333300       0.66666700       0.05969500 </v>
   <v>       0.66666700       0.33333300       0.80940600 </v>
   <v>       0.66666700       0.33333300       0.19059400 </v>
   <v>       0.00000000       0.00000000       0.44025400 </v>
   <v>       0.00000000       0.00000000       0.55974600 </v>
  </varray>
 </structure>
</modeling>
